/*--------------------------------*- C++ -*----------------------------------*\
  =========                 |
  \\      /  F ield         | OpenFOAM: The Open Source CFD Toolbox
   \\    /   O peration     | Website:  https://openfoam.org
    \\  /    A nd           | Version:  10
     \\/     M anipulation  |
\*---------------------------------------------------------------------------*/
FoamFile
{
    format      ascii;
    class       volScalarField;
    location    "0.03";
    object      alpha.water;
}
// * * * * * * * * * * * * * * * * * * * * * * * * * * * * * * * * * * * * * //

dimensions      [0 0 0 0 0 0 0];

internalField   nonuniform List<scalar> 
800
(
0.999996
0.999995
0.999995
0.999995
0.999995
0.999995
0.999995
0.999995
0.999995
0.999995
0.999995
0.999995
0.999995
0.999995
0.999995
0.999995
0.999995
0.999995
0.999995
0.999997
0.999995
0.999995
0.999994
0.999994
0.999994
0.999995
0.999995
0.999994
0.999995
0.999995
0.999995
0.999995
0.999994
0.999994
0.999995
0.999995
0.999994
0.999994
0.999995
0.999997
0.999995
0.999994
0.999994
0.999994
0.999994
0.999994
0.999994
0.999994
0.999994
0.999994
0.999994
0.999994
0.999994
0.999994
0.999995
0.999994
0.999994
0.999994
0.999995
0.999997
0.999995
0.999994
0.999994
0.999994
0.999994
0.999994
0.999995
0.999994
0.999994
0.999994
0.999994
0.999994
0.999994
0.999994
0.999996
0.999994
0.999994
0.999994
0.999995
0.999998
0.999995
0.999995
0.999994
0.999994
0.999994
0.999995
0.999996
0.999995
0.999994
0.999994
0.999994
0.999994
0.999994
0.999995
0.999996
0.999994
0.999994
0.999994
0.999995
0.999998
0.999996
0.999996
0.999995
0.999994
0.999994
0.999996
0.999996
0.999994
0.999994
0.999995
0.999995
0.999994
0.999994
0.999996
0.999996
0.999994
0.999994
0.999994
0.999996
0.999998
0.999996
0.999996
0.999995
0.999994
0.999994
0.999996
0.999996
0.999994
0.999994
0.999995
0.999995
0.999994
0.999995
0.999996
0.999996
0.999995
0.999994
0.999994
0.999995
0.999998
0.999996
0.999995
0.999994
0.999994
0.999994
0.999996
0.999996
0.999994
0.999994
0.999995
0.999995
0.999994
0.999995
0.999996
0.999996
0.999995
0.999994
0.999994
0.999996
0.999998
0.999996
0.999994
0.999994
0.999994
0.999995
0.999996
0.999995
0.999994
0.999995
0.999995
0.999995
0.999994
0.999994
0.999995
0.999996
0.999995
0.999994
0.999994
0.999996
0.999998
0.999995
0.999995
0.999995
0.999995
0.999996
0.999996
0.999995
0.999994
0.999994
0.999995
0.999994
0.999994
0.999994
0.999995
0.999996
0.999996
0.999996
0.999997
0.999996
0.999998
0.999996
0.999997
0.999997
0.999997
0.999997
0.999996
0.999996
0.999994
0.999994
0.999994
0.999994
0.999994
0.999995
0.999996
0.999996
0.999997
0.999997
0.999997
0.999996
0.999998
0.999997
0.999997
0.999997
0.999997
0.999997
0.999996
0.999996
0.999996
0.999995
0.999994
0.999994
0.999996
0.999996
0.999997
0.999996
0.999997
0.999997
0.999996
0.999997
0.999998
0.999997
0.999997
0.999997
0.999997
0.999996
0.999996
0.999997
0.999997
0.999997
0.999996
0.999996
0.999997
0.999997
0.999997
0.999996
0.999997
0.999998
0.999996
0.999997
0.999999
0.999997
0.999998
0.999998
0.999997
0.999996
0.999996
0.999997
0.999997
0.999997
0.999997
0.999997
0.999997
0.999997
0.999997
0.999996
0.999997
0.999998
0.999996
0.999997
0.999999
0.999998
0.999998
0.999998
0.999998
0.999997
0.999996
0.999997
0.999998
0.999998
0.999998
0.999998
0.999998
0.999998
0.999997
0.999997
0.999998
0.999998
0.999998
0.999998
0.999999
0.999998
0.999998
0.999998
0.999998
0.999998
0.999997
0.999997
0.999998
0.999998
0.999998
0.999998
0.999998
0.999998
0.999998
0.999998
0.999998
0.999998
0.999998
0.999998
0.999999
0.999998
0.999999
0.999999
0.999999
0.999998
0.999998
0.999998
0.999998
0.999998
0.999998
0.999998
0.999998
0.999998
0.999998
0.999998
0.999998
0.999999
0.999999
0.999999
0.999999
0.999999
0.999999
0.999999
0.999999
0.999999
0.999999
0.999999
0.999999
0.999999
0.999999
0.999999
0.999999
0.999999
0.999999
0.999999
0.999999
0.999999
0.999999
0.999999
1
0.999999
0.999999
0.999999
0.999999
0.999999
0.999999
0.999999
0.999999
0.999999
0.999999
0.999999
0.999999
0.999999
0.999999
0.999999
0.999999
0.999999
0.999999
0.999999
1
1
1
1
1
1
1
1
1
1
1
1
1
1
1
1
1
1
1
1
1
1
1
1
1
1
1
1
1
1
1
1
1
1
1
1
1
1
1
1
1
1
1
1
1
1
1
1
1
1
1
1
1
1
1
1
1
1
1
1
1
1
1
1
1
1
1
1
1
1
1
1
1
1
1
1
1
1
1
1
1
1
1
1
1
1
1
1
1
1
1
1
1
1
1
1
1
1
1
1
1
1
1
1
1
1
1
1
1
1
1
1
1
1
1
1
1
1
1
1
1
1
1
1
1
1
1
1
1
1
1
1
1
1
1
1
1
1
1
1
1
1
1
1
1
1
1
1
1
1
1
1
1
1
1
1
1
1
1
1
1
1
1
1
1
1
1
1
1
1
1
1
1
1
1
0.999998
1
0.999998
1
1
1
1
1
1
1
0.999994
0.999997
1
1
0.999994
0.999991
1
1
0.999996
0.999997
0.999998
1
0.999995
0.999998
1
0.999999
0.869354
0.875378
0.872472
0.876842
0.870816
0.859195
0.867819
0.883535
0.862295
0.850504
0.875441
0.88331
0.861219
0.861116
0.889334
0.876567
0.858811
0.871278
0.88295
0.858511
0.120633
0.124699
0.124575
0.125809
0.126305
0.107612
0.129568
0.144836
0.127043
0.101915
0.147272
0.14826
0.121884
0.117312
0.158638
0.141214
0.115123
0.133738
0.153551
0.120756
7.66891e-07
1.14147e-05
1.40121e-05
2.71779e-05
6.74043e-06
5.16535e-06
9.33516e-05
0.000327228
8.44941e-05
8.22241e-06
0.000145322
0.000395135
7.64386e-05
2.75261e-05
0.000626709
0.000212858
0.000138663
0.000322473
0.000577094
7.07286e-05
6.60479e-07
2.12544e-08
6.26257e-08
1.56484e-06
6.42789e-06
3.9967e-06
7.44917e-05
1.01848e-05
9.05647e-05
4.64897e-06
9.24957e-05
6.76829e-06
7.23963e-05
2.5729e-05
0.000128163
4.19014e-05
0.000132366
7.71875e-05
0.00011083
7.03044e-05
2.06667e-09
3.56415e-11
9.71703e-11
3.7701e-09
3.54193e-14
1.48087e-16
7.73659e-09
9.96697e-08
2.82807e-08
2.20368e-07
2.88947e-06
8.19938e-07
2.91058e-08
4.26044e-07
1.38684e-07
2.62103e-08
1.94085e-08
6.56168e-09
6.63846e-08
3.54358e-06
2.05786e-09
4.7544e-18
5.07266e-18
1.27322e-13
1.18587e-17
2.35136e-17
5.87159e-09
2.22924e-10
2.79836e-08
2.86914e-08
9.86678e-08
3.54322e-08
2.84993e-08
3.69034e-09
9.30751e-08
1.14799e-09
5.6929e-08
6.54725e-09
5.71315e-08
1.80372e-08
4.7534e-18
4.75335e-18
4.7544e-18
5.07266e-18
1.1243e-17
2.07227e-17
2.35136e-17
2.89663e-11
2.49303e-10
8.76931e-10
1.51611e-09
7.10654e-10
1.29076e-09
2.63771e-11
4.93861e-12
2.65192e-12
5.53214e-12
8.75915e-11
3.59262e-10
1.46291e-10
4.75335e-18
5.56075e-18
1.92528e-16
1.90327e-15
3.71266e-16
9.97992e-16
3.49149e-13
7.34224e-12
2.84579e-12
8.98648e-12
1.46647e-11
1.03409e-11
1.84865e-11
2.66785e-12
4.3762e-12
8.14274e-13
5.53151e-12
8.98104e-13
1.10259e-12
6.42197e-13
4.75665e-18
4.60713e-17
1.2655e-15
1.30229e-14
7.03117e-16
1.51602e-14
2.43478e-14
1.77041e-13
1.44851e-13
2.12427e-13
3.69574e-13
4.69947e-13
4.68764e-13
1.17961e-13
3.83224e-14
1.51476e-14
9.61772e-14
5.5802e-14
4.50774e-15
1.84876e-15
4.89732e-18
1.64132e-16
1.53312e-16
7.31741e-17
8.02967e-17
7.73945e-17
1.54675e-16
1.57718e-15
5.52807e-15
1.37661e-14
1.80589e-14
1.86804e-14
8.78298e-15
1.417e-15
1.79231e-16
1.04579e-16
4.32329e-16
7.94444e-16
3.88708e-16
2.83076e-17
1.30843e-18
2.13952e-18
3.09882e-18
2.74023e-18
2.41718e-18
2.2865e-18
2.6267e-18
9.93702e-18
6.56033e-17
3.4656e-16
4.67824e-16
2.52059e-16
1.0493e-16
2.03224e-17
1.99117e-17
1.99117e-17
1.96501e-17
1.73503e-17
8.09196e-18
8.07912e-18
)
;

boundaryField
{
    top
    {
        type            inletOutlet;
        inletValue      uniform 0;
        value           nonuniform List<scalar> 
20
(
0
0
0
0
0
0
0
0
6.56033e-17
3.4656e-16
4.67824e-16
2.52059e-16
1.0493e-16
2.03224e-17
1.99117e-17
1.99117e-17
1.96501e-17
1.73503e-17
8.09196e-18
8.07912e-18
)
;
    }
    left
    {
        type            zeroGradient;
    }
    right
    {
        type            zeroGradient;
    }
    bottom
    {
        type            zeroGradient;
    }
    front
    {
        type            empty;
    }
    back
    {
        type            empty;
    }
    frontAndBack
    {
        type            empty;
    }
}


// ************************************************************************* //
