/*--------------------------------*- C++ -*----------------------------------*\
  =========                 |
  \\      /  F ield         | OpenFOAM: The Open Source CFD Toolbox
   \\    /   O peration     | Website:  https://openfoam.org
    \\  /    A nd           | Version:  10
     \\/     M anipulation  |
\*---------------------------------------------------------------------------*/
FoamFile
{
    format      ascii;
    class       surfaceScalarField;
    location    "0.03";
    object      alphaPhi.water;
}
// * * * * * * * * * * * * * * * * * * * * * * * * * * * * * * * * * * * * * //

dimensions      [0 3 -1 0 0 0 0];

internalField   nonuniform List<scalar> 
1540
(
9.25134e-14
-9.27205e-14
4.56338e-13
-3.64063e-13
9.8916e-13
-5.33067e-13
1.52357e-12
-5.34652e-13
1.90979e-12
-3.86467e-13
2.0425e-12
-1.32948e-13
1.86986e-12
1.72392e-13
1.41585e-12
4.53759e-13
7.33554e-13
6.82052e-13
-6.74829e-14
8.00789e-13
-8.61779e-13
7.94051e-13
-1.53375e-12
6.71722e-13
-1.97955e-12
4.45565e-13
-2.14634e-12
1.66541e-13
-2.00684e-12
-1.39738e-13
-1.60155e-12
-4.05539e-13
-1.03807e-12
-5.63716e-13
-4.94075e-13
-5.44245e-13
-1.05349e-13
-3.88995e-13
-1.05484e-13
3.71345e-13
-4.64304e-13
1.30284e-12
-1.29582e-12
2.51473e-12
-1.74523e-12
3.6735e-12
-1.69369e-12
4.48551e-12
-1.19874e-12
4.74231e-12
-3.90006e-13
4.31728e-12
5.97138e-13
3.26325e-12
1.50753e-12
1.71688e-12
2.22815e-12
-9.60483e-14
2.61344e-12
-1.90588e-12
2.60361e-12
-3.44067e-12
2.20625e-12
-4.49455e-12
1.49918e-12
-4.90791e-12
5.79634e-13
-4.62765e-12
-4.20255e-13
-3.7947e-12
-1.23875e-12
-2.60459e-12
-1.7541e-12
-1.35237e-12
-1.79673e-12
-3.88312e-13
-1.35333e-12
-4.93935e-13
5.96377e-13
-1.06093e-12
1.95573e-12
-2.65544e-12
3.62157e-12
-3.41134e-12
5.17219e-12
-3.24458e-12
6.22447e-12
-2.25129e-12
6.50103e-12
-6.66836e-13
5.93687e-12
1.16103e-12
4.47321e-12
2.97092e-12
2.36454e-12
4.33654e-12
-1.02825e-13
5.08054e-12
-2.56926e-12
5.06977e-12
-4.67258e-12
4.30929e-12
-6.10575e-12
2.93209e-12
-6.68464e-12
1.15826e-12
-6.38145e-12
-7.23722e-13
-5.29697e-12
-2.32351e-12
-3.71146e-12
-3.33987e-12
-2.00203e-12
-3.50642e-12
-6.16374e-13
-2.73926e-12
-1.11045e-12
7.64128e-13
-1.8253e-12
2.42443e-12
-4.31601e-12
4.40709e-12
-5.39427e-12
6.22266e-12
-5.06043e-12
7.42732e-12
-3.45623e-12
7.71799e-12
-9.5777e-13
6.94445e-12
1.93429e-12
5.22698e-12
4.68812e-12
2.76231e-12
6.80094e-12
-1.15294e-13
7.95788e-12
-2.99139e-12
7.9456e-12
-5.45483e-12
6.77245e-12
-7.16353e-12
4.64053e-12
-7.88546e-12
1.87991e-12
-7.60471e-12
-1.00474e-12
-6.36071e-12
-3.56777e-12
-4.50061e-12
-5.20024e-12
-2.46332e-12
-5.54398e-12
-7.75068e-13
-4.4278e-12
-1.88565e-12
8.66468e-13
-2.692e-12
2.71206e-12
-6.16189e-12
4.91172e-12
-7.5942e-12
6.89481e-12
-7.04378e-12
8.16978e-12
-4.73146e-12
8.42496e-12
-1.2132e-12
7.53111e-12
2.82781e-12
5.63569e-12
6.58328e-12
2.96653e-12
9.46984e-12
-1.21835e-13
1.1046e-11
-3.21402e-12
1.10375e-11
-5.87067e-12
9.42883e-12
-7.75876e-12
6.52836e-12
-8.62063e-12
2.7415e-12
-8.33853e-12
-1.28711e-12
-7.03207e-12
-4.87449e-12
-5.01443e-12
-7.21814e-12
-2.76612e-12
-7.79255e-12
-8.78075e-13
-6.31613e-12
-2.76387e-12
8.96216e-13
-3.58846e-12
2.836e-12
-8.10194e-12
5.13768e-12
-9.89616e-12
7.15614e-12
-9.0625e-12
8.41165e-12
-5.98724e-12
8.58366e-12
-1.38547e-12
7.62147e-12
3.7897e-12
5.65088e-12
8.5536e-12
2.94079e-12
1.21797e-11
-1.42149e-13
1.41286e-11
-3.21451e-12
1.41096e-11
-5.90298e-12
1.2117e-11
-7.85213e-12
8.47726e-12
-8.79241e-12
3.68149e-12
-8.56517e-12
-1.5146e-12
-7.2912e-12
-6.14871e-12
-5.24298e-12
-9.26663e-12
-2.91188e-12
-1.01239e-11
-9.3813e-13
-8.29017e-12
-3.70213e-12
9.01961e-13
-4.49068e-12
2.80096e-12
-1.00012e-11
5.01932e-12
-1.21148e-11
6.92938e-12
-1.09728e-11
8.0792e-12
-7.13732e-12
8.16443e-12
-1.47097e-12
7.1794e-12
4.77444e-12
5.26281e-12
1.04699e-11
2.70624e-12
1.4736e-11
-1.63648e-13
1.69983e-11
-3.029e-12
1.69747e-11
-5.57979e-12
1.46676e-11
-7.4567e-12
1.03539e-11
-8.39954e-12
4.62404e-12
-8.26462e-12
-1.64979e-12
-7.08258e-12
-7.33101e-12
-5.13104e-12
-1.12184e-11
-2.90606e-12
-1.23491e-11
-9.43925e-13
-1.02526e-11
-4.64619e-12
8.21767e-13
-5.31269e-12
2.54268e-12
-1.17224e-11
4.48733e-12
-1.40597e-11
6.14508e-12
-1.26308e-11
7.08865e-12
-8.08114e-12
7.1142e-12
-1.49678e-12
6.18426e-12
5.70411e-12
4.49452e-12
1.21594e-11
2.27349e-12
1.69568e-11
-1.79548e-13
1.9451e-11
-2.63116e-12
1.94261e-11
-4.82784e-12
1.6864e-11
-6.48292e-12
1.20087e-11
-7.37696e-12
5.51781e-12
-7.30386e-12
-1.72317e-12
-6.28622e-12
-8.34884e-12
-4.58844e-12
-1.29165e-11
-2.5855e-12
-1.43523e-11
-8.48572e-13
-1.19898e-11
-5.49489e-12
6.73093e-13
-5.986e-12
2.02599e-12
-1.30755e-11
3.55928e-12
-1.55932e-11
4.83964e-12
-1.39114e-11
5.557e-12
-8.79874e-12
5.52841e-12
-1.46845e-12
4.79565e-12
6.4366e-12
3.43359e-12
1.35212e-11
1.70867e-12
1.86814e-11
-1.92979e-13
2.13524e-11
-2.08426e-12
2.13171e-11
-3.80201e-12
1.85815e-11
-5.13651e-12
1.3343e-11
-5.82329e-12
6.20433e-12
-5.79591e-12
-1.75079e-12
-5.00838e-12
-9.1366e-12
-3.6736e-12
-1.42515e-11
-2.08338e-12
-1.59428e-11
-6.86052e-13
-1.33874e-11
-6.18107e-12
4.38179e-13
-6.42439e-12
1.29567e-12
-1.39332e-11
2.24114e-12
-1.65389e-11
3.07352e-12
-1.47441e-11
3.54051e-12
-9.266e-12
3.55992e-12
-1.48812e-12
3.06369e-12
6.93262e-12
2.15283e-12
1.44318e-11
1.01189e-12
1.98221e-11
-2.23534e-13
2.25876e-11
-1.45354e-12
2.25468e-11
-2.57693e-12
1.97047e-11
-3.45301e-12
1.42188e-11
-3.88951e-12
6.64063e-12
-3.80658e-12
-1.83398e-12
-3.27962e-12
-9.66385e-12
-2.40681e-12
-1.51245e-11
-1.38573e-12
-1.69641e-11
-4.72867e-13
-1.43005e-11
-6.65406e-12
1.32579e-13
-6.55719e-12
3.93857e-13
-1.41947e-11
6.90096e-13
-1.68354e-11
9.8792e-13
-1.50422e-11
1.24263e-12
-9.52099e-12
1.33437e-12
-1.58011e-12
1.14588e-12
7.12088e-12
7.57816e-13
1.48197e-11
2.67151e-13
2.03125e-11
-2.49482e-13
2.3104e-11
-7.56576e-13
2.30537e-11
-1.22095e-12
2.01688e-11
-1.57044e-12
1.45681e-11
-1.70749e-12
6.77746e-12
-1.56074e-12
-1.98097e-12
-1.27372e-12
-9.9511e-12
-9.02228e-13
-1.54963e-11
-5.307e-13
-1.73359e-11
-2.00175e-13
-1.46312e-11
-6.85435e-12
-1.64401e-13
-6.39301e-12
-5.01296e-13
-1.38581e-11
-8.67743e-13
-1.64692e-11
-1.11627e-12
-1.47939e-11
-1.11807e-12
-9.51944e-12
-9.88344e-13
-1.71006e-12
-8.37449e-13
6.96975e-12
-6.6226e-13
1.46443e-11
-4.77495e-13
2.01276e-11
-2.86121e-13
2.29124e-11
-8.9252e-14
2.28566e-11
1.2979e-13
1.99496e-11
3.55126e-13
1.43426e-11
5.70218e-13
6.56213e-12
7.48416e-13
-2.15938e-12
7.92095e-13
-9.99501e-12
6.21895e-13
-1.53263e-11
3.73382e-13
-1.70876e-11
1.15974e-13
-1.4374e-11
-6.73849e-12
-4.36824e-13
-5.95639e-12
-1.32647e-12
-1.29687e-11
-2.32015e-12
-1.54758e-11
-3.07386e-12
-1.40404e-11
-3.41228e-12
-9.1812e-12
-3.27302e-12
-1.84954e-12
-2.76622e-12
6.46272e-12
-2.04195e-12
1.39198e-11
-1.20481e-12
1.92903e-11
-3.31922e-13
2.20394e-11
5.55717e-13
2.19689e-11
1.43155e-12
1.90736e-11
2.21294e-12
1.3561e-11
2.78583e-12
5.98903e-12
3.00021e-12
-2.37397e-12
2.75149e-12
-9.74648e-12
2.07107e-12
-1.46461e-11
1.16067e-12
-1.61775e-11
3.80967e-13
-1.35946e-11
-6.35763e-12
-6.62945e-13
-5.29365e-12
-2.00739e-12
-1.16244e-11
-3.52131e-12
-1.39621e-11
-4.76911e-12
-1.27928e-11
-5.43704e-12
-8.51346e-12
-5.34254e-12
-1.94426e-12
-4.57022e-12
5.69019e-12
-3.36948e-12
1.27188e-11
-1.92638e-12
1.7847e-11
-3.80217e-13
2.0493e-11
1.17962e-12
2.04088e-11
2.66316e-12
1.75898e-11
3.92762e-12
1.22963e-11
4.77525e-12
5.14118e-12
4.95176e-12
-2.55066e-12
4.37842e-12
-9.17335e-12
3.21552e-12
-1.34834e-11
1.81719e-12
-1.47793e-11
5.8593e-13
-1.23635e-11
-5.7718e-12
-8.16144e-13
-4.47769e-12
-2.47013e-12
-9.97067e-12
-4.36384e-12
-1.20686e-11
-6.01297e-12
-1.11439e-11
-6.97898e-12
-7.54766e-12
-7.01815e-12
-1.90527e-12
-6.11201e-12
4.78384e-12
-4.54435e-12
1.1151e-11
-2.58496e-12
1.58874e-11
-4.40152e-13
1.8348e-11
1.71938e-12
1.82491e-11
3.72263e-12
1.55864e-11
5.35692e-12
1.06618e-11
6.33377e-12
4.16414e-12
6.3886e-12
-2.60567e-12
5.53694e-12
-8.32189e-12
4.02996e-12
-1.19767e-11
2.24657e-12
-1.29961e-11
7.1125e-13
-1.08284e-11
-5.06065e-12
-8.83968e-13
-3.5939e-12
-2.68563e-12
-8.1692e-12
-4.77701e-12
-9.97743e-12
-6.65141e-12
-9.2697e-12
-7.84337e-12
-6.35589e-12
-8.05427e-12
-1.69455e-12
-7.18034e-12
3.90973e-12
-5.41535e-12
9.38577e-12
-3.10113e-12
1.3573e-11
-5.1269e-13
1.57594e-11
2.09278e-12
1.56434e-11
4.45175e-12
1.32272e-11
6.27636e-12
8.83698e-12
7.22761e-12
3.21272e-12
7.1371e-12
-2.51534e-12
6.08427e-12
-7.26924e-12
4.36967e-12
-1.02623e-11
2.42459e-12
-1.10512e-11
7.68702e-13
-9.17272e-12
-4.29204e-12
-8.74859e-13
-2.71921e-12
-2.66655e-12
-6.37769e-12
-4.76691e-12
-7.87726e-12
-6.68291e-12
-7.35389e-12
-7.98027e-12
-5.05871e-12
-8.32949e-12
-1.34551e-12
-7.58927e-12
3.16934e-12
-5.83623e-12
7.63255e-12
-3.39311e-12
1.11297e-11
-5.98223e-13
1.29643e-11
2.21328e-12
1.28317e-11
4.6999e-12
1.07404e-11
6.51571e-12
7.02099e-12
7.35933e-12
2.36894e-12
7.14404e-12
-2.30023e-12
6.01064e-12
-6.13601e-12
4.27823e-12
-8.53004e-12
2.35297e-12
-9.12617e-12
7.37908e-13
-7.55783e-12
-3.55421e-12
-8.10584e-13
-1.90878e-12
-2.47179e-12
-4.71666e-12
-4.43136e-12
-5.91786e-12
-6.24154e-12
-5.54389e-12
-7.5145e-12
-3.78591e-12
-7.93615e-12
-9.24032e-13
-7.33914e-12
2.57218e-12
-5.7574e-12
6.05065e-12
-3.42564e-12
8.79772e-12
-7.00624e-13
1.02391e-11
2.04013e-12
1.00908e-11
4.41704e-12
8.36333e-12
6.07934e-12
5.35852e-12
6.79371e-12
1.65441e-12
6.52652e-12
-2.0332e-12
5.44377e-12
-5.05342e-12
3.84715e-12
-6.93359e-12
2.09793e-12
-7.37712e-12
6.46709e-13
-6.10678e-12
-2.90759e-12
-7.17906e-13
-1.19102e-12
-2.18081e-12
-3.25392e-12
-3.91033e-12
-4.1885e-12
-5.51837e-12
-3.93601e-12
-6.66961e-12
-2.63483e-12
-7.09368e-12
-5.00128e-13
-6.63189e-12
2.11024e-12
-5.29054e-12
4.70914e-12
-3.24788e-12
6.75491e-12
-8.21337e-13
7.81244e-12
1.6221e-12
7.64721e-12
3.71625e-12
6.26902e-12
5.15099e-12
3.92363e-12
5.74748e-12
1.05776e-12
5.50182e-12
-1.78768e-12
4.57109e-12
-4.12285e-12
3.21255e-12
-5.5752e-12
1.73564e-12
-5.90038e-12
5.22448e-13
-4.89375e-12
-2.38521e-12
-6.21544e-13
-5.6962e-13
-1.86813e-12
-2.00749e-12
-3.33743e-12
-2.71936e-12
-4.70518e-12
-2.56842e-12
-5.68888e-12
-1.65128e-12
-6.07196e-12
-1.17201e-13
-5.72315e-12
1.76128e-12
-4.64415e-12
3.62999e-12
-2.96813e-12
5.07874e-12
-9.58635e-13
5.80279e-12
1.06942e-12
5.61901e-12
2.80242e-12
4.53587e-12
3.98776e-12
2.73815e-12
4.48875e-12
5.56635e-13
4.30738e-12
-1.60645e-12
3.578e-12
-3.39362e-12
2.50298e-12
-4.50033e-12
1.33723e-12
-4.73478e-12
3.89034e-13
-3.94571e-12
-1.99625e-12
-5.3943e-13
-3.03232e-14
-1.5898e-12
-9.57272e-13
-2.81462e-12
-1.49469e-12
-3.95179e-12
-1.43139e-12
-4.76199e-12
-8.41223e-13
-5.08692e-12
2.07592e-13
-4.82925e-12
1.50346e-12
-4.00091e-12
2.80151e-12
-2.68914e-12
3.76683e-12
-1.10956e-12
4.22307e-12
4.87268e-13
4.02204e-12
1.85628e-12
3.16672e-12
2.80549e-12
1.7888e-12
3.23089e-12
1.31096e-13
3.12408e-12
-1.49978e-12
2.60317e-12
-2.87285e-12
1.81149e-12
-3.70879e-12
9.54545e-13
-3.87797e-12
2.63947e-13
-3.25526e-12
-1.73238e-12
-4.81935e-13
4.51481e-13
-1.38193e-12
-5.74217e-14
-2.40828e-12
-4.68482e-13
-3.35641e-12
-4.83409e-13
-4.00248e-12
-1.95298e-13
-4.26682e-12
4.71787e-13
-4.07629e-12
1.31279e-12
-3.47289e-12
2.19797e-12
-2.47307e-12
2.76687e-12
-1.26969e-12
3.01955e-12
-6.00849e-14
2.8123e-12
9.81546e-13
2.12495e-12
1.72862e-12
1.04159e-12
2.09992e-12
-2.40341e-13
2.05307e-12
-1.45306e-12
1.72666e-12
-2.54658e-12
1.19293e-12
-3.1752e-12
6.19762e-13
-3.30495e-12
1.58017e-13
-2.79366e-12
-1.57444e-12
-4.51139e-13
9.02488e-13
-1.26543e-12
7.56723e-13
-2.16601e-12
4.31949e-13
-2.9835e-12
3.33935e-13
-3.471e-12
2.92052e-13
-3.65366e-12
6.54304e-13
-3.50533e-12
1.16432e-12
-3.12064e-12
1.81314e-12
-2.34843e-12
1.99452e-12
-1.42463e-12
2.09561e-12
-5.48323e-13
1.93585e-12
2.04903e-13
1.37158e-12
8.08211e-13
4.38149e-13
1.15341e-12
-5.85676e-13
1.12789e-12
-1.42768e-12
9.80902e-13
-2.39973e-12
6.75365e-13
-2.86981e-12
3.60376e-13
-2.9901e-12
7.25378e-14
-2.50597e-12
-1.50197e-12
-4.4988e-13
1.35223e-12
-1.26071e-12
1.5674e-12
-2.11965e-12
1.29073e-12
-2.89085e-12
1.10498e-12
-3.18276e-12
5.83803e-13
-3.21144e-12
6.82831e-13
-3.10105e-12
1.05379e-12
-2.99518e-12
1.70712e-12
-2.34497e-12
1.34416e-12
-1.52334e-12
1.27384e-12
-9.62927e-13
1.37529e-12
-5.33803e-13
9.42315e-13
2.1491e-14
-1.17288e-13
4.62752e-13
-1.02708e-12
3.49829e-13
-1.3149e-12
3.33382e-13
-2.38342e-12
2.94561e-13
-2.83113e-12
2.00852e-13
-2.89654e-12
-3.29562e-15
-2.30198e-12
-1.50535e-12
-3.65935e-13
1.71803e-12
-1.28406e-12
2.48537e-12
-2.34774e-12
2.35425e-12
-3.14929e-12
1.90637e-12
-3.2342e-12
6.68541e-13
-2.79376e-12
2.4223e-13
-2.80176e-12
1.06162e-12
-3.25053e-12
2.15574e-12
-2.52901e-12
6.22475e-13
-1.34472e-12
8.93878e-14
-1.24238e-12
1.2728e-12
-1.44677e-12
1.14655e-12
-5.98751e-13
-9.65458e-13
1.05603e-13
-1.73158e-12
-4.14658e-13
-7.94789e-13
-3.61426e-13
-2.43681e-12
1.19341e-13
-3.31206e-12
2.59623e-13
-3.03698e-12
-1.45314e-13
-1.89721e-12
-1.65075e-12
-1.47297e-13
1.86517e-12
-1.44958e-12
3.78748e-12
-3.00616e-12
3.91066e-12
-4.2145e-12
3.11454e-12
-3.835e-12
2.88874e-13
-1.84274e-12
-1.7502e-12
-2.10021e-12
1.31892e-12
-4.33985e-12
4.39521e-12
-3.1309e-12
-5.86642e-13
-7.95081e-14
-2.96217e-12
-1.30491e-12
2.49804e-12
-3.2623e-12
3.10378e-12
-1.12107e-12
-3.10685e-12
9.59176e-13
-3.81199e-12
-1.20406e-12
1.36829e-12
-1.5184e-12
-2.12263e-12
4.43522e-13
-5.27414e-12
7.72527e-13
-3.36616e-12
-6.32595e-13
-4.92254e-13
-2.28342e-12
1.01354e-12
8.51474e-13
-1.1835e-12
5.98436e-12
-3.88767e-12
6.61466e-12
-5.86175e-12
5.08844e-12
-5.3378e-12
-2.35233e-13
-2.8465e-13
-6.8035e-12
-6.10065e-13
1.64417e-12
-7.87487e-12
1.16599e-11
-5.16562e-12
-3.29605e-12
3.42782e-12
-1.15557e-11
-7.81717e-13
6.70742e-12
-7.41681e-12
9.73872e-12
-1.48321e-12
-9.04057e-12
3.81096e-12
-9.10628e-12
-3.07197e-12
8.25107e-12
-4.88956e-12
-3.05192e-13
1.88383e-12
-1.20477e-11
2.55907e-12
-4.04155e-12
-2.67357e-12
4.74023e-12
-4.95707e-12
4.14894e-12
-3.29727e-12
-1.18687e-12
1.132e-11
-6.95843e-12
1.23861e-11
-1.00811e-11
8.211e-12
-7.51673e-12
-2.79962e-12
6.31723e-12
-2.06377e-11
4.49577e-12
3.46553e-12
-1.37495e-11
2.9905e-11
-7.77445e-12
-9.27114e-12
1.45102e-11
-3.38403e-11
2.11372e-12
1.91039e-11
-1.60504e-11
2.79028e-11
-1.03597e-12
-2.40552e-11
1.30864e-11
-2.32287e-11
-4.75301e-12
2.60902e-11
-1.12009e-11
6.1427e-12
5.90703e-12
-2.91559e-11
7.14296e-12
-5.27757e-12
-6.66473e-12
1.85478e-11
-1.16218e-11
1.77557e-11
-2.1052e-11
8.50437e-13
2.82253e-11
-1.28779e-11
2.61144e-11
-2.08355e-11
1.6168e-11
-1.2677e-11
-1.09483e-11
2.37726e-11
-5.70897e-11
1.60412e-11
1.11969e-11
-3.23096e-11
7.82554e-11
-1.49641e-11
-2.66043e-11
4.19224e-11
-9.07099e-11
1.05128e-11
5.05134e-11
-3.57727e-11
7.41882e-11
3.58602e-13
-6.01755e-11
3.5818e-11
-5.86797e-11
-7.55934e-12
6.94672e-11
-2.77637e-11
2.6347e-11
1.21897e-11
-6.91255e-11
1.50538e-11
-8.12721e-12
-1.45062e-11
4.81076e-11
-2.61354e-11
5.38848e-11
-4.00637e-11
1.24079e-11
3.90368e-11
-2.71805e-11
3.62405e-11
-3.05169e-11
1.03873e-11
-9.76254e-13
-2.17757e-11
8.06405e-11
-7.07994e-11
4.93894e-11
2.45456e-11
-7.44464e-11
1.13547e-10
-2.78128e-11
-3.89166e-11
1.17472e-10
-1.21621e-10
3.44547e-11
7.6297e-11
-8.65039e-11
1.10623e-10
1.23011e-11
-8.61305e-11
1.014e-10
-7.82498e-11
-9.71816e-12
1.04843e-10
-6.83728e-11
4.8984e-11
2.85716e-11
-8.75796e-11
3.53768e-11
-7.45942e-12
-3.34465e-11
6.65361e-11
-3.12139e-11
7.61927e-12
-9.44868e-14
4.61623e-12
1.50019e-13
5.88516e-13
1.75113e-13
-2.27639e-12
0
4.23623e-12
-1.36241e-12
1.0464e-11
-1.44357e-13
7.58185e-12
0
-1.09137e-11
0
-1.8728e-12
-5.34857e-13
1.27369e-11
-6.19592e-13
8.49409e-12
0
-6.38497e-12
0
4.05658e-12
-9.15594e-13
1.52708e-11
-4.4502e-13
2.55165e-12
0
-6.77849e-12
0
1.1025e-12
-5.4749e-13
8.18832e-12
-4.10591e-12
4.69779e-13
0
-1.4705e-13
-8.82802e-14
-7.70879e-16
-4.53553e-15
4.48883e-16
6.66547e-14
3.68978e-16
3.63179e-14
0
-4.11765e-16
-2.4536e-15
-8.51611e-14
-4.02746e-15
-2.18124e-13
0
4.30792e-13
0
9.24647e-16
-2.1111e-14
-1.98225e-13
-2.0552e-14
1.43412e-13
0
6.77067e-13
0
4.9128e-15
-4.51845e-14
-2.68423e-13
-1.8485e-14
2.80097e-13
0
1.68486e-13
0
5.72788e-15
-7.74725e-14
1.4648e-14
-2.81381e-14
1.04123e-13
0
-6.20537e-15
-4.46558e-16
-8.61258e-18
-1.56669e-16
0
2.31041e-16
2.09126e-18
7.8847e-17
0
1.55846e-16
-5.1994e-19
-2.05883e-15
-1.82565e-20
-7.32468e-15
0
2.37347e-14
0
5.66065e-16
-3.93604e-16
-1.00511e-14
-6.90882e-16
-2.29256e-16
0
2.24302e-14
0
1.08882e-16
-1.90222e-15
-2.38655e-14
-6.97092e-16
9.2278e-15
0
9.76145e-15
0
-1.87546e-16
-3.72588e-16
-3.61348e-15
-9.49409e-17
1.0275e-14
0
3.91334e-16
-3.08546e-19
-1.07836e-19
-5.75129e-19
-3.45733e-22
7.9849e-19
1.61613e-21
5.0288e-19
0
2.14517e-21
-1.99002e-22
2.15236e-23
-8.95462e-27
7.53228e-19
0
3.89569e-16
0
4.79584e-18
-2.99942e-18
-1.22924e-16
-1.68341e-17
-5.59591e-17
0
2.49444e-16
0
1.9317e-18
-4.72232e-18
-3.28457e-16
-1.00035e-17
3.8213e-17
0
6.74862e-17
0
-3.29106e-19
-6.18959e-18
-9.65611e-17
-2.45221e-19
2.92177e-17
0
0
-1.17089e-22
-4.19579e-29
-4.62823e-22
-4.05826e-29
1.15331e-21
-2.40874e-27
1.9984e-22
-3.20508e-26
9.04789e-25
-1.03317e-27
9.32e-25
-6.70104e-28
2.19302e-19
-4.28902e-24
1.72618e-18
0
1.30156e-18
-1.40803e-19
-1.58454e-18
-4.27809e-19
-4.62752e-19
0
1.17947e-18
0
-4.06046e-22
0
-3.84861e-18
-1.83331e-20
-1.63873e-20
4.26234e-21
9.53342e-20
0
-2.47776e-20
-1.18791e-21
-2.08673e-18
2.64179e-21
-1.97131e-19
0
0
-1.88801e-29
-2.3436e-29
-7.87923e-30
-5.22224e-29
3.14102e-29
-2.44481e-27
1.32515e-28
-3.1872e-26
2.18959e-28
-4.35331e-27
3.60356e-28
-1.96629e-27
9.45655e-27
-4.26262e-24
4.47151e-21
0
8.51186e-21
-2.78867e-22
-2.32884e-21
-1.36112e-21
-2.75502e-21
0
7.99747e-21
0
-6.04356e-23
0
-4.94509e-21
3.06341e-24
-1.04097e-22
0
2.05205e-23
0
-1.10693e-21
-1.34965e-23
-1.19945e-20
0
-1.03733e-21
0
0
-8.1472e-30
-1.59277e-29
-1.63593e-29
-1.61569e-28
9.69241e-28
-2.03181e-26
1.1998e-26
-2.65609e-25
2.64745e-27
-1.60221e-26
8.91745e-27
-3.1993e-25
4.8391e-24
-6.11881e-25
9.19456e-23
-1.39943e-24
2.60554e-23
-1.58604e-25
-2.05202e-24
6.28551e-25
-1.02581e-23
1.62939e-24
3.66865e-23
8.09879e-24
-1.43613e-24
5.32358e-24
-2.73818e-23
3.33125e-24
-3.06676e-24
7.99325e-25
-1.50161e-23
4.69811e-25
-9.20065e-24
2.74186e-23
-3.04595e-23
6.07307e-25
-3.7817e-24
0
2.60382e-26
-3.83439e-30
-1.33207e-29
-8.13079e-29
-1.68171e-27
8.49519e-28
-4.93259e-27
2.52346e-26
-1.58475e-27
1.4525e-27
-3.43518e-27
2.83978e-26
-3.11158e-27
6.62869e-26
-4.19158e-27
6.87565e-25
-1.81686e-26
3.97305e-25
7.27365e-27
-1.14916e-25
1.25563e-25
-1.37748e-25
3.68845e-25
6.25992e-25
6.1846e-25
4.61145e-26
3.17708e-25
-1.37485e-25
8.09584e-26
-3.97668e-26
6.46821e-27
-3.0629e-25
3.7376e-27
-4.63553e-25
1.70049e-26
-9.40839e-26
3.77544e-26
-6.67923e-27
4.19406e-27
1.58464e-28
-4.42773e-29
-6.91632e-30
-5.63904e-29
-2.17133e-29
-1.01248e-29
-1.58788e-28
5.56751e-30
-1.72067e-28
-9.25334e-30
-1.59276e-28
-5.36817e-29
-1.31682e-28
-2.78199e-28
-1.06774e-28
5.7066e-28
-1.92608e-28
4.48248e-28
2.06136e-28
-1.15642e-26
9.11182e-27
-3.0894e-27
1.75343e-26
1.51153e-26
1.64733e-26
2.61614e-27
4.5818e-27
-1.81217e-28
5.54656e-28
-1.58818e-28
1.2189e-27
-7.55451e-28
1.19103e-27
-2.90229e-27
2.07179e-28
-1.92872e-27
2.8331e-28
-4.01855e-29
1.93731e-28
8.64693e-29
-1.09111e-31
-3.74264e-31
-3.56523e-31
-3.43915e-31
-6.59348e-31
-1.20406e-30
-2.16853e-30
-1.03843e-29
-1.63989e-28
-2.87677e-28
-2.10631e-29
1.0581e-28
3.58764e-29
2.27505e-30
-1.1781e-29
-2.76659e-29
-3.94996e-29
-1.61991e-29
-7.02421e-30
)
;

boundaryField
{
    top
    {
        type            calculated;
        value           nonuniform List<scalar> 
20
(
0
0
0
0
0
0
0
0
5.47243e-29
2.6889e-27
6.32794e-27
4.43111e-27
1.84458e-27
3.0472e-28
2.34393e-28
2.08352e-28
1.95254e-28
1.66045e-28
5.92299e-29
1.641e-29
)
;
    }
    left
    {
        type            calculated;
        value           uniform 0;
    }
    right
    {
        type            calculated;
        value           uniform 0;
    }
    bottom
    {
        type            calculated;
        value           nonuniform List<scalar> 
20
(
0
0
-1.54074e-33
0
0
0
0
0
0
9.86071e-32
0
0
0
0
0
0
0
0
0
0
)
;
    }
    front
    {
        type            empty;
        value           nonuniform List<scalar> 0();
    }
    back
    {
        type            empty;
        value           nonuniform List<scalar> 0();
    }
    frontAndBack
    {
        type            empty;
        value           nonuniform List<scalar> 0();
    }
}


// ************************************************************************* //
