/*--------------------------------*- C++ -*----------------------------------*\
  =========                 |
  \\      /  F ield         | OpenFOAM: The Open Source CFD Toolbox
   \\    /   O peration     | Website:  https://openfoam.org
    \\  /    A nd           | Version:  10
     \\/     M anipulation  |
\*---------------------------------------------------------------------------*/
FoamFile
{
    format      ascii;
    class       volScalarField;
    location    "0.03";
    object      p;
}
// * * * * * * * * * * * * * * * * * * * * * * * * * * * * * * * * * * * * * //

dimensions      [1 -1 -2 0 0 0 0];

internalField   nonuniform List<scalar> 
800
(
13.5708
13.5723
13.5723
13.5696
13.5642
13.5566
13.5482
13.54
13.5332
13.5289
13.5276
13.5291
13.5331
13.5386
13.5448
13.5505
13.5542
13.5552
13.5541
13.553
13.0774
13.0796
13.0797
13.0773
13.0725
13.0658
13.0587
13.0517
13.0458
13.042
13.0406
13.0418
13.0447
13.0493
13.0539
13.0586
13.0612
13.0624
13.061
13.0597
12.5862
12.589
12.5892
12.5868
12.5822
12.576
12.5695
12.5627
12.5573
12.5536
12.5521
12.5527
12.5552
12.559
12.5638
12.5672
12.5699
12.5709
12.5694
12.5677
12.0973
12.1007
12.101
12.0983
12.0933
12.0868
12.08
12.0729
12.0677
12.0641
12.0625
12.0629
12.0651
12.0687
12.0746
12.0772
12.0803
12.0813
12.0797
12.0775
11.6115
11.6148
11.6149
11.612
11.6062
11.599
11.5928
11.5844
11.5788
11.575
11.5732
11.5735
11.5756
11.5796
11.5852
11.5889
11.5925
11.5938
11.5922
11.5897
11.1292
11.1333
11.132
11.1284
11.1218
11.1144
11.1066
11.0981
11.0926
11.0887
11.0869
11.0868
11.0885
11.0937
11.0981
11.1028
11.107
11.1088
11.1073
11.1046
10.6509
10.6541
10.6526
10.6483
10.6409
10.6331
10.6245
10.6163
10.6109
10.607
10.6049
10.6046
10.6055
10.6101
10.6151
10.6198
10.6244
10.6269
10.6252
10.6227
10.1761
10.1782
10.1772
10.1722
10.1644
10.1561
10.1479
10.1401
10.1351
10.1314
10.129
10.1279
10.128
10.1316
10.1358
10.1405
10.1454
10.148
10.1466
10.1445
9.70508
9.70739
9.70559
9.70013
9.6922
9.68455
9.67633
9.67011
9.66519
9.66203
9.65922
9.65725
9.65673
9.65763
9.66142
9.66521
9.66987
9.67248
9.67114
9.66955
9.23825
9.23928
9.2365
9.23158
9.22505
9.21746
9.21078
9.20521
9.20083
9.19714
9.194
9.19154
9.19007
9.19007
9.19114
9.19382
9.1964
9.19782
9.19843
9.19713
8.77378
8.77315
8.77078
8.76713
8.76171
8.75449
8.74845
8.74391
8.7399
8.73634
8.73274
8.7292
8.72629
8.72455
8.72456
8.72588
8.72667
8.72717
8.7276
8.72689
8.31139
8.3095
8.30671
8.30358
8.29884
8.29429
8.28909
8.28473
8.28082
8.27735
8.27329
8.26873
8.26493
8.26181
8.26021
8.25831
8.25783
8.25735
8.25665
8.25763
7.84937
7.84623
7.84314
7.84012
7.83785
7.83473
7.83044
7.82647
7.82224
7.81788
7.81329
7.80859
7.80392
7.79933
7.79563
7.79064
7.78809
7.78692
7.78548
7.78734
7.38676
7.38262
7.37919
7.37616
7.37462
7.37377
7.37037
7.36719
7.36296
7.35828
7.35307
7.34741
7.34149
7.33479
7.32848
7.32105
7.31647
7.31417
7.31263
7.31474
6.92281
6.91783
6.91363
6.91041
6.90857
6.90846
6.90649
6.90473
6.90041
6.8956
6.88972
6.88284
6.87529
6.86627
6.85688
6.8478
6.84142
6.83727
6.83672
6.83903
6.45728
6.45155
6.44646
6.44253
6.43977
6.43857
6.43755
6.43546
6.43177
6.42672
6.42014
6.41201
6.40238
6.39152
6.38027
6.37009
6.3628
6.35827
6.35727
6.35979
5.99044
5.98409
5.97784
5.97231
5.96765
5.96427
5.96158
5.95867
5.95472
5.94911
5.94179
5.93266
5.92179
5.9099
5.89816
5.88791
5.88033
5.87559
5.8744
5.87669
5.5231
5.51616
5.50841
5.50056
5.49296
5.48621
5.4803
5.47485
5.46916
5.46245
5.45444
5.44497
5.43416
5.42271
5.41163
5.40197
5.39451
5.38961
5.38798
5.38977
5.05647
5.04885
5.03916
5.02829
5.01684
5.00567
4.99531
4.98595
4.97733
4.96893
4.96039
4.95143
4.9419
4.93199
4.92223
4.91337
4.90602
4.90073
4.89836
4.89935
4.59212
4.58353
4.57133
4.5566
4.5403
4.52367
4.50789
4.49371
4.48149
4.47113
4.46237
4.45475
4.44748
4.43978
4.43151
4.42328
4.41564
4.4094
4.40577
4.40563
4.13187
4.12185
4.10636
4.08664
4.06412
4.04071
4.01842
3.99861
3.98234
3.97001
3.96153
3.95637
3.95265
3.94783
3.94089
3.93284
3.92418
3.91602
3.91026
3.90861
3.67788
3.66574
3.64599
3.61969
3.58886
3.5567
3.52643
3.49983
3.47885
3.46451
3.45699
3.45636
3.45881
3.45801
3.4518
3.4434
3.43265
3.42082
3.41136
3.40786
3.23271
3.21744
3.19261
3.15746
3.11443
3.07071
3.03083
2.99571
2.96858
2.95198
2.94579
2.95365
2.9684
2.97363
2.96569
2.95683
2.94262
2.92387
2.90719
2.90258
2.79949
2.77954
2.75048
2.7036
2.64076
2.58047
2.53049
2.48446
2.44732
2.42826
2.42137
2.44604
2.48679
2.50216
2.48195
2.4762
2.4572
2.42479
2.39233
2.39224
2.38182
2.35196
2.327
2.26534
2.15695
2.0647
2.02379
1.96578
1.90211
1.87955
1.86669
1.92639
1.98554
2.04411
1.99284
2.00854
1.98286
1.92276
1.85984
1.87174
1.98498
1.93687
1.95707
1.8922
1.70289
1.56628
1.55332
1.48551
1.32607
1.29319
1.2764
1.44611
1.51502
1.61877
1.57344
1.59185
1.51136
1.41571
1.33176
1.33058
1.4386
1.47771
1.63754
1.54455
1.05112
0.834116
1.10758
1.13118
0.581332
0.403555
0.766053
1.14161
0.914547
1.05213
1.3535
1.28895
0.894646
0.909105
0.888514
0.656115
1.10652
1.25921
1.80565
1.76268
0.483384
-0.620955
1.1572
1.9475
-0.449183
-1.61327
0.791126
1.83892
-0.305924
-0.107275
2.09697
1.45746
-0.558115
0.454594
1.1145
-0.598807
-0.944887
0.795152
2.37748
2.90947
-1.67134
-5.73518
1.53512
7.04913
-3.14345
-8.76253
3.01495
6.7055
-4.77321
-4.19065
6.99729
3.31291
-6.11186
0.188986
4.78877
-4.39889
-3.31597
1.53514
3.39016
7.95189
-2.24187
-18.4296
3.28534
25.4517
-8.22901
-28.1016
12.7164
24.2196
-17.6507
-15.9748
24.5171
10.0689
-23.4096
1.57024
19.6648
-14.8178
-0.354779
0.169968
0.235058
0.898393
-0.170724
-2.04401
0.535207
4.28752
-0.900528
-3.07089
2.59875
4.24286
-2.6243
-2.17141
4.78659
1.75755
-3.24925
0.394329
4.03509
-1.86782
0.000632554
0.0064087
0.00753949
-0.0171198
0.00656108
0.0852969
0.0175178
-0.081653
0.0388457
0.133114
-0.0417933
-0.0974872
0.0773788
0.0778931
-0.0806552
-0.0205306
0.133921
-0.00437396
-0.0837504
0.0729452
0.00646266
0.00741646
0.00480559
1.33727e-05
0.00946867
0.0308826
0.0170666
-0.0237698
0.019641
0.0456221
-0.000292514
-0.0142487
0.00537818
0.0227906
-0.01311
0.00167478
0.0390357
0.00185519
-0.0172868
0.0194464
0.00576034
0.00664597
0.00523822
0.00416847
0.00960225
0.0144877
0.00173484
-0.00319905
0.0113428
0.0208362
0.00514683
0.00162972
0.0166817
0.0108807
-0.00140474
0.00486265
0.0130129
0.00266165
-0.00365594
0.0064548
0.00517787
0.00534431
0.00484717
0.00472325
0.00677027
0.00810313
0.00369484
0.00200739
0.00797075
0.0110292
0.0056634
0.00433137
0.00978702
0.00771547
0.00235422
0.00431207
0.00681726
0.00271766
-0.000360755
0.00269762
0.00398415
0.00416443
0.004013
0.00405056
0.00470643
0.00488377
0.0034965
0.00337289
0.00509324
0.00591713
0.00484721
0.00444509
0.00510282
0.00435332
0.0030774
0.00343944
0.00333776
0.00195387
0.000910557
0.00124924
0.00299929
0.00300329
0.00292768
0.00301029
0.00328028
0.00323914
0.00269821
0.00272874
0.00338968
0.00366851
0.00343069
0.00324899
0.00333197
0.0029438
0.00240312
0.00232154
0.00203293
0.00142483
0.000852828
0.000724855
0.00206067
0.00203131
0.00199132
0.00203267
0.00212327
0.00206728
0.00186346
0.00190085
0.00214653
0.00224954
0.00222157
0.00213246
0.00208798
0.00189152
0.00163915
0.00148271
0.00126154
0.000935427
0.000603233
0.000432262
0.00119836
0.00117399
0.00115253
0.00116541
0.00118723
0.00115091
0.00108213
0.00110866
0.00117957
0.00120266
0.00119261
0.0011553
0.0011158
0.00103326
0.000929623
0.000822833
0.000679656
0.000496906
0.000310762
0.000197128
0.000392642
0.000382202
0.00037276
0.00037367
0.000377393
0.000368029
0.000354513
0.000367811
0.00037906
0.000371533
0.000349842
0.000338038
0.000342658
0.000337582
0.000319982
0.000284469
0.000226807
0.000143518
5.85996e-05
1.00382e-05
)
;

boundaryField
{
    top
    {
        type            calculated;
        value           nonuniform List<scalar> 
20
(
-1.58031e-07
-1.85991e-06
-5.34246e-06
-8.38879e-06
-9.0364e-06
-6.98498e-06
-3.55346e-06
-8.82878e-07
0
0
0
0
0
0
0
0
0
0
0
0
)
;
    }
    left
    {
        type            calculated;
        value           nonuniform List<scalar> 
40
(
13.5708
13.0774
12.5862
12.0973
11.6115
11.1292
10.6509
10.1761
9.70508
9.23825
8.77378
8.31139
7.84937
7.38676
6.92281
6.45728
5.99044
5.5231
5.05647
4.59212
4.13187
3.67788
3.23271
2.79949
2.38182
1.98498
1.4386
1.10652
-0.944887
-3.31597
-0.354779
0.000632554
0.00646266
0.00576034
0.00517787
0.00398415
0.00299929
0.00206067
0.00119836
0.000392642
)
;
    }
    right
    {
        type            calculated;
        value           nonuniform List<scalar> 
40
(
13.553
13.0597
12.5677
12.0775
11.5897
11.1046
10.6227
10.1445
9.66955
9.19713
8.72689
8.25763
7.78734
7.31474
6.83903
6.35979
5.87669
5.38977
4.89935
4.40563
3.90861
3.40786
2.90258
2.39224
1.87174
1.33058
0.656115
-0.598807
-4.39889
-14.8178
-1.86782
0.0729452
0.0194464
0.0064548
0.00269762
0.00124924
0.000724855
0.000432262
0.000197128
1.00382e-05
)
;
    }
    bottom
    {
        type            calculated;
        value           nonuniform List<scalar> 
20
(
13.816
13.8176
13.8175
13.8148
13.8094
13.8018
13.7934
13.7852
13.7784
13.774
13.7727
13.7742
13.7782
13.7838
13.7901
13.7957
13.7994
13.8005
13.7993
13.7983
)
;
    }
    front
    {
        type            empty;
    }
    back
    {
        type            empty;
    }
    frontAndBack
    {
        type            empty;
    }
}


// ************************************************************************* //
