/*--------------------------------*- C++ -*----------------------------------*\
  =========                 |
  \\      /  F ield         | OpenFOAM: The Open Source CFD Toolbox
   \\    /   O peration     | Website:  https://openfoam.org
    \\  /    A nd           | Version:  10
     \\/     M anipulation  |
\*---------------------------------------------------------------------------*/
FoamFile
{
    format      ascii;
    class       volScalarField;
    location    "0.03";
    object      p_rgh;
}
// * * * * * * * * * * * * * * * * * * * * * * * * * * * * * * * * * * * * * //

dimensions      [1 -1 -2 0 0 0 0];

internalField   nonuniform List<scalar> 
800
(
13.816
13.8176
13.8175
13.8148
13.8094
13.8018
13.7934
13.7852
13.7785
13.7742
13.7728
13.7743
13.7783
13.7838
13.7901
13.7958
13.7994
13.8005
13.7993
13.7983
13.8132
13.8153
13.8155
13.8131
13.8082
13.8016
13.7945
13.7874
13.7816
13.7778
13.7764
13.7776
13.7805
13.7851
13.7896
13.7943
13.7969
13.7981
13.7968
13.7955
13.8125
13.8152
13.8155
13.8131
13.8084
13.8023
13.7958
13.7889
13.7835
13.7799
13.7783
13.7789
13.7814
13.7852
13.79
13.7934
13.7962
13.7971
13.7957
13.794
13.814
13.8175
13.8177
13.8151
13.81
13.8035
13.7967
13.7896
13.7844
13.7808
13.7792
13.7796
13.7818
13.7854
13.7914
13.7939
13.797
13.7981
13.7964
13.7942
13.8187
13.8221
13.8222
13.8192
13.8135
13.8062
13.8
13.7916
13.7861
13.7822
13.7804
13.7808
13.7829
13.7868
13.7924
13.7961
13.7997
13.801
13.7994
13.7969
13.8269
13.8311
13.8297
13.8262
13.8195
13.8121
13.8044
13.7958
13.7903
13.7865
13.7846
13.7845
13.7862
13.7914
13.7958
13.8005
13.8047
13.8066
13.805
13.8023
13.8391
13.8423
13.8408
13.8366
13.8291
13.8213
13.8128
13.8045
13.7991
13.7952
13.7931
13.7928
13.7938
13.7983
13.8033
13.8081
13.8126
13.8152
13.8134
13.811
13.8549
13.8569
13.856
13.8509
13.8431
13.8348
13.8266
13.8188
13.8138
13.8101
13.8077
13.8066
13.8067
13.8104
13.8146
13.8192
13.8241
13.8267
13.8253
13.8233
13.8743
13.8766
13.8748
13.8694
13.8614
13.8538
13.8456
13.8393
13.8344
13.8313
13.8284
13.8265
13.826
13.8269
13.8306
13.8344
13.8391
13.8417
13.8404
13.8388
13.898
13.899
13.8962
13.8913
13.8848
13.8772
13.8705
13.8649
13.8606
13.8569
13.8537
13.8513
13.8498
13.8498
13.8509
13.8536
13.8561
13.8575
13.8582
13.8569
13.924
13.9234
13.921
13.9174
13.9119
13.9047
13.8987
13.8941
13.8901
13.8866
13.883
13.8794
13.8765
13.8748
13.8748
13.8761
13.8769
13.8774
13.8778
13.8771
13.9521
13.9502
13.9474
13.9443
13.9396
13.935
13.9298
13.9255
13.9215
13.9181
13.914
13.9095
13.9057
13.9025
13.9009
13.899
13.8986
13.8981
13.8974
13.8984
13.9806
13.9775
13.9744
13.9714
13.9691
13.966
13.9617
13.9577
13.9535
13.9491
13.9445
13.9398
13.9351
13.9306
13.9269
13.9219
13.9193
13.9182
13.9167
13.9186
14.0085
14.0044
14.0009
13.9979
13.9964
13.9955
13.9921
13.9889
13.9847
13.98
13.9748
13.9691
13.9632
13.9565
13.9502
13.9428
13.9382
13.9359
13.9344
13.9365
14.035
14.0301
14.0259
14.0226
14.0208
14.0207
14.0187
14.017
14.0126
14.0078
14.002
13.9951
13.9875
13.9785
13.9691
13.96
13.9537
13.9495
13.949
13.9513
14.06
14.0543
14.0492
14.0453
14.0425
14.0413
14.0403
14.0382
14.0345
14.0295
14.0229
14.0147
14.0051
13.9943
13.983
13.9728
13.9655
13.961
13.96
13.9625
14.0837
14.0773
14.0711
14.0655
14.0609
14.0575
14.0548
14.0519
14.048
14.0423
14.035
14.0259
14.015
14.0031
13.9914
13.9811
13.9736
13.9688
13.9676
13.9699
14.1068
14.0999
14.0922
14.0843
14.0767
14.0699
14.064
14.0586
14.0529
14.0462
14.0382
14.0287
14.0179
14.0064
13.9954
13.9857
13.9783
13.9733
13.9717
13.9735
14.1307
14.1231
14.1134
14.1025
14.0911
14.0799
14.0696
14.0602
14.0516
14.0432
14.0346
14.0257
14.0161
14.0062
13.9965
13.9876
13.9803
13.975
13.9726
13.9736
14.1569
14.1483
14.1361
14.1214
14.105
14.0884
14.0726
14.0585
14.0462
14.0359
14.0271
14.0195
14.0122
14.0045
13.9963
13.988
13.9804
13.9741
13.9705
13.9704
14.1871
14.1771
14.1616
14.1419
14.1194
14.096
14.0737
14.0539
14.0376
14.0253
14.0168
14.0116
14.0079
14.0031
13.9961
13.9881
13.9794
13.9713
13.9655
13.9639
14.2236
14.2115
14.1917
14.1654
14.1346
14.1025
14.0722
14.0456
14.0246
14.0103
14.0027
14.0021
14.0046
14.0038
13.9976
13.9892
13.9784
13.9666
13.9571
13.9536
14.269
14.2537
14.2289
14.1937
14.1507
14.107
14.0671
14.032
14.0048
13.9882
13.982
13.9899
14.0047
14.0099
14.002
13.9931
13.9789
13.9601
13.9434
13.9388
14.3262
14.3063
14.2772
14.2304
14.1675
14.1072
14.0572
14.0112
13.9741
13.955
13.9481
13.9728
14.0135
14.0289
14.0087
14.003
13.984
13.9516
13.9191
13.919
14.3991
14.3692
14.3443
14.2826
14.1742
14.082
14.041
13.983
13.9194
13.8968
13.884
13.9436
14.0028
14.0614
14.0101
14.0258
14.0001
13.94
13.8771
13.889
14.4927
14.4446
14.4648
14.4
14.2106
14.074
14.0611
13.9933
13.8338
13.8009
13.7842
13.9539
14.0228
14.1265
14.0812
14.0996
14.0191
13.9235
13.8395
13.8383
14.4369
14.476
14.6358
14.5428
14.0494
13.8324
14.1058
14.1294
13.5796
13.4018
13.7643
14.1399
13.9128
14.0504
14.3517
14.2872
13.8929
13.9074
13.8868
13.6544
14.5953
14.748
15.2944
15.2514
13.9721
12.8678
14.6459
15.4363
13.0396
11.8755
14.2799
15.3277
13.1828
13.3815
15.5857
14.9462
12.9306
13.9433
14.6032
12.8899
13.0344
14.7744
16.3567
16.8887
12.3078
8.24403
15.5144
21.0284
10.8357
5.2166
16.9942
20.6847
9.20598
9.78855
20.9765
17.2922
7.86732
14.1682
18.768
9.58035
9.26526
14.2034
16.0165
20.6414
10.3605
-5.99522
15.8444
38.2379
4.25017
-15.7929
25.3856
37.0026
-5.1871
-3.51264
37.3872
22.7544
-10.9808
14.1793
32.4426
-2.39329
1.46308
2.04859
2.11183
2.79361
1.7319
-0.42076
2.4866
6.46711
1.01312
-1.53279
4.81473
6.4736
-0.787748
-0.403187
7.17245
3.883
-1.51374
2.40804
6.34492
-0.0481187
0.0160951
0.0220356
0.0232065
-0.0012496
0.0221159
0.100827
0.0344094
-0.0611514
0.0556007
0.148692
-0.0240994
-0.0759374
0.0940094
0.0937687
-0.055531
-0.00179427
0.151513
0.0160543
-0.0593921
0.0894877
0.0224144
0.0233581
0.0207478
0.0159795
0.0255123
0.0468874
0.0341942
-0.0076664
0.0370246
0.0616374
0.0171218
0.00180031
0.0224724
0.0391416
0.00487227
0.0182833
0.0570849
0.0190257
0.000419417
0.0365073
0.0221921
0.0230777
0.02167
0.0206003
0.026034
0.0309195
0.0181667
0.0132343
0.027775
0.0372715
0.021626
0.0180749
0.0331139
0.0273194
0.0150293
0.0212948
0.0294449
0.0190935
0.0127769
0.0229447
0.0221002
0.0222666
0.0217694
0.0216455
0.0236925
0.0250254
0.0206172
0.0189296
0.0248935
0.0279519
0.0225873
0.0212542
0.0267098
0.0246378
0.019278
0.0212343
0.0237405
0.01964
0.0165625
0.0196202
0.0213969
0.0215772
0.0214258
0.0214633
0.0221192
0.0222965
0.0209092
0.0207856
0.022506
0.0233299
0.02226
0.0218579
0.0225156
0.0217661
0.0204901
0.0208522
0.0207505
0.0193666
0.0183233
0.018662
0.0209025
0.0209065
0.0208309
0.0209135
0.0211835
0.0211424
0.0206015
0.020632
0.0212929
0.0215718
0.0213339
0.0211522
0.0212352
0.0208471
0.0203064
0.0202248
0.0199362
0.0193281
0.0187561
0.0186281
0.0204544
0.0204251
0.0203851
0.0204264
0.020517
0.020461
0.0202572
0.0202946
0.0205403
0.0206433
0.0206153
0.0205262
0.0204817
0.0202853
0.0200329
0.0198765
0.0196553
0.0193292
0.018997
0.018826
0.0200826
0.0200582
0.0200368
0.0200497
0.0200715
0.0200352
0.0199664
0.0199929
0.0200638
0.0200869
0.0200769
0.0200395
0.02
0.0199175
0.0198139
0.0197071
0.0195639
0.0193812
0.019195
0.0190814
0.0197674
0.019757
0.0197475
0.0197484
0.0197521
0.0197428
0.0197293
0.0197426
0.0197538
0.0197463
0.0197246
0.0197128
0.0197174
0.0197123
0.0196947
0.0196592
0.0196016
0.0195183
0.0194333
0.0193848
)
;

boundaryField
{
    top
    {
        type            prghTotalPressure;
        rho             rho;
        psi             none;
        gamma           1;
        p0              uniform 0;
        value           nonuniform List<scalar> 
20
(
0.0196198
0.0196181
0.0196147
0.0196116
0.019611
0.019613
0.0196164
0.0196191
0.01962
0.01962
0.01962
0.01962
0.01962
0.01962
0.01962
0.01962
0.01962
0.01962
0.01962
0.01962
)
;
        rho             rho;
    }
    left
    {
        type            fixedFluxPressure;
        gradient        uniform 0;
        value           nonuniform List<scalar> 
40
(
13.816
13.8132
13.8125
13.814
13.8187
13.8269
13.8391
13.8549
13.8743
13.898
13.924
13.9521
13.9806
14.0085
14.035
14.06
14.0837
14.1068
14.1307
14.1569
14.1871
14.2236
14.269
14.3262
14.3991
14.4927
14.4369
14.5953
13.0344
9.26526
1.46308
0.0160951
0.0224144
0.0221921
0.0221002
0.0213969
0.0209025
0.0204544
0.0200826
0.0197674
)
;
    }
    right
    {
        type            fixedFluxPressure;
        gradient        uniform 0;
        value           nonuniform List<scalar> 
40
(
13.7983
13.7955
13.794
13.7942
13.7969
13.8023
13.811
13.8233
13.8388
13.8569
13.8771
13.8984
13.9186
13.9365
13.9513
13.9625
13.9699
13.9735
13.9736
13.9704
13.9639
13.9536
13.9388
13.919
13.889
13.8383
13.6544
12.8899
9.58035
-2.39329
-0.0481187
0.0894877
0.0365073
0.0229447
0.0196202
0.018662
0.0186281
0.018826
0.0190814
0.0193848
)
;
    }
    bottom
    {
        type            fixedFluxPressure;
        gradient        nonuniform List<scalar> 
20
(
-0.00674302
-0.0202219
-0.0646091
-0.183711
-0.455876
-0.977208
-1.79893
-2.86328
-3.94698
-4.64724
-4.64671
-3.94535
-2.86085
-1.79652
-0.975616
-0.455043
-0.18336
-0.0644843
-0.0201802
-0.00672805
)
;
        value           nonuniform List<scalar> 
20
(
13.816
13.8176
13.8175
13.8148
13.8094
13.8018
13.7934
13.7852
13.7784
13.774
13.7727
13.7742
13.7782
13.7838
13.7901
13.7957
13.7994
13.8005
13.7993
13.7983
)
;
    }
    front
    {
        type            empty;
    }
    back
    {
        type            empty;
    }
    frontAndBack
    {
        type            empty;
    }
}


// ************************************************************************* //
