/*--------------------------------*- C++ -*----------------------------------*\
  =========                 |
  \\      /  F ield         | OpenFOAM: The Open Source CFD Toolbox
   \\    /   O peration     | Website:  https://openfoam.org
    \\  /    A nd           | Version:  10
     \\/     M anipulation  |
\*---------------------------------------------------------------------------*/
FoamFile
{
    format      ascii;
    class       surfaceScalarField;
    location    "0.03";
    object      phi;
}
// * * * * * * * * * * * * * * * * * * * * * * * * * * * * * * * * * * * * * //

dimensions      [0 3 -1 0 0 0 0];

internalField   nonuniform List<scalar> 
1540
(
9.36009e-14
-9.32681e-14
4.58176e-13
-3.64197e-13
9.91657e-13
-5.33089e-13
1.52666e-12
-5.34614e-13
1.91342e-12
-3.86366e-13
2.04663e-12
-1.32814e-13
1.87437e-12
1.72654e-13
1.42072e-12
4.54034e-13
7.38754e-13
6.82362e-13
-6.20333e-14
8.0118e-13
-8.56217e-13
7.94576e-13
-1.5282e-12
6.72373e-13
-1.97432e-12
4.46507e-13
-2.14155e-12
1.67617e-13
-2.00253e-12
-1.38636e-13
-1.59797e-12
-4.04172e-13
-1.03536e-12
-5.62225e-13
-4.92097e-13
-5.42849e-13
-1.04254e-13
-3.87414e-13
-1.04038e-13
3.72046e-13
-4.64935e-13
1.30403e-12
-1.29577e-12
2.51623e-12
-1.74486e-12
3.67522e-12
-1.69317e-12
4.48742e-12
-1.19814e-12
4.74445e-12
-3.89416e-13
4.31983e-12
5.97705e-13
3.2663e-12
1.50799e-12
1.72056e-12
2.22853e-12
-9.16786e-14
2.61385e-12
-1.90089e-12
2.60422e-12
-3.43534e-12
2.20725e-12
-4.48911e-12
1.5007e-12
-4.90271e-12
5.81647e-13
-4.62312e-12
-4.17803e-13
-3.79092e-12
-1.23596e-12
-2.60163e-12
-1.75109e-12
-1.35037e-12
-1.79367e-12
-3.87067e-13
-1.35028e-12
-4.90885e-13
5.97128e-13
-1.06167e-12
1.95684e-12
-2.65505e-12
3.62288e-12
-3.41045e-12
5.1736e-12
-3.24345e-12
6.22598e-12
-2.25009e-12
6.50275e-12
-6.65744e-13
5.93901e-12
1.16188e-12
4.47599e-12
2.97146e-12
2.36813e-12
4.33683e-12
-9.83799e-14
5.08081e-12
-2.56405e-12
5.07033e-12
-4.66684e-12
4.31047e-12
-6.09984e-12
2.93414e-12
-6.67899e-12
1.16122e-12
-6.37639e-12
-7.19968e-13
-5.29278e-12
-2.31913e-12
-3.70825e-12
-3.33519e-12
-1.9998e-12
-3.50168e-12
-6.15042e-13
-2.7346e-12
-1.10571e-12
7.64962e-13
-1.82624e-12
2.42563e-12
-4.31529e-12
4.40843e-12
-5.3928e-12
6.22408e-12
-5.05865e-12
7.42884e-12
-3.4544e-12
7.71971e-12
-9.56182e-13
6.94665e-12
1.93538e-12
5.22988e-12
4.68867e-12
2.76611e-12
6.80104e-12
-1.1055e-13
7.95791e-12
-2.98581e-12
7.94603e-12
-5.44863e-12
6.77373e-12
-7.15711e-12
4.64305e-12
-7.87923e-12
1.88377e-12
-7.59923e-12
-9.99537e-13
-6.35613e-12
-3.5618e-12
-4.49712e-12
-5.19377e-12
-2.46093e-12
-5.53743e-12
-7.73712e-13
-4.42138e-12
-1.8792e-12
8.67327e-13
-2.69317e-12
2.71336e-12
-6.1609e-12
4.91325e-12
-7.59226e-12
6.89649e-12
-7.04145e-12
8.17159e-12
-4.72907e-12
8.42705e-12
-1.2112e-12
7.53383e-12
2.82904e-12
5.63908e-12
6.58385e-12
2.9708e-12
9.46976e-12
-1.16672e-13
1.10458e-11
-3.2081e-12
1.10379e-11
-5.86418e-12
9.43025e-12
-7.75206e-12
6.53136e-12
-8.61415e-12
2.7463e-12
-8.33255e-12
-1.28071e-12
-7.02717e-12
-4.86675e-12
-5.01072e-12
-7.2098e-12
-2.76359e-12
-7.78412e-12
-8.76693e-13
-6.30784e-12
-2.75568e-12
8.97385e-13
-3.59017e-12
2.83772e-12
-8.10081e-12
5.13986e-12
-9.89396e-12
7.1585e-12
-9.05966e-12
8.41426e-12
-5.9844e-12
8.58665e-12
-1.38315e-12
7.62505e-12
3.79107e-12
5.65522e-12
8.55411e-12
2.94582e-12
1.21796e-11
-1.36504e-13
1.41286e-11
-3.20834e-12
1.41102e-11
-5.89647e-12
1.21188e-11
-7.84552e-12
8.48084e-12
-8.78591e-12
3.68711e-12
-8.55932e-12
-1.50689e-12
-7.28629e-12
-6.13936e-12
-5.23922e-12
-9.25644e-12
-2.90932e-12
-1.01136e-11
-9.3667e-13
-8.28006e-12
-3.69214e-12
9.03306e-13
-4.49309e-12
2.80323e-12
-1.00003e-11
5.02228e-12
-1.21126e-11
6.93283e-12
-1.09698e-11
8.08304e-12
-7.13418e-12
8.16894e-12
-1.46863e-12
7.18454e-12
4.77589e-12
5.26861e-12
1.04705e-11
2.7124e-12
1.47362e-11
-1.57386e-13
1.69988e-11
-3.02279e-12
1.6976e-11
-5.57371e-12
1.46701e-11
-7.45072e-12
1.03583e-11
-8.39367e-12
4.63047e-12
-8.2593e-12
-1.64085e-12
-7.07791e-12
-7.32034e-12
-5.12748e-12
-1.12065e-11
-2.90359e-12
-1.23371e-11
-9.42554e-13
-1.02407e-11
-4.63448e-12
8.23576e-13
-5.31629e-12
2.54572e-12
-1.1722e-11
4.4915e-12
-1.40579e-11
6.15024e-12
-1.26281e-11
7.09467e-12
-8.07819e-12
7.1211e-12
-1.49464e-12
6.19192e-12
5.70549e-12
4.50244e-12
1.21604e-11
2.28118e-12
1.69579e-11
-1.72448e-13
1.94528e-11
-2.62481e-12
1.94288e-11
-4.82216e-12
1.68679e-11
-6.47756e-12
1.20141e-11
-7.37185e-12
5.52517e-12
-7.29911e-12
-1.71318e-12
-6.28238e-12
-8.33665e-12
-4.58529e-12
-1.29031e-11
-2.58317e-12
-1.43388e-11
-8.47109e-13
-1.19763e-11
-5.48139e-12
6.75227e-13
-5.99114e-12
2.02996e-12
-1.30764e-11
3.56501e-12
-1.55926e-11
4.84697e-12
-1.39096e-11
5.56575e-12
-8.79656e-12
5.5381e-12
-1.46658e-12
4.80589e-12
6.43811e-12
3.4438e-12
1.35229e-11
1.71808e-12
1.8684e-11
-1.84871e-13
2.13562e-11
-2.07758e-12
2.13219e-11
-3.79658e-12
1.85873e-11
-5.13192e-12
1.33498e-11
-5.81935e-12
6.213e-12
-5.79228e-12
-1.73986e-12
-5.00514e-12
-9.12339e-12
-3.67088e-12
-1.4237e-11
-2.08124e-12
-1.5928e-11
-6.84655e-13
-1.33725e-11
-6.16584e-12
4.40775e-13
-6.43155e-12
1.30069e-12
-1.39359e-11
2.24853e-12
-1.654e-11
3.08305e-12
-1.47438e-11
3.55172e-12
-9.26483e-12
3.57235e-12
-1.48681e-12
3.07663e-12
6.93423e-12
2.16522e-12
1.44347e-11
1.02299e-12
1.98267e-11
-2.14249e-13
2.25938e-11
-1.44628e-12
2.25543e-11
-2.57142e-12
1.97129e-11
-3.4488e-12
1.42276e-11
-3.88609e-12
6.65068e-12
-3.80363e-12
-1.82193e-12
-3.27696e-12
-9.64967e-12
-2.40449e-12
-1.51091e-11
-1.38372e-12
-1.69484e-11
-4.71336e-13
-1.42845e-11
-6.63698e-12
1.35697e-13
-6.5669e-12
3.9988e-13
-1.41997e-11
6.98909e-13
-1.68387e-11
9.9942e-13
-1.50439e-11
1.25627e-12
-9.52129e-12
1.34918e-12
-1.57933e-12
1.16086e-12
7.12294e-12
7.72007e-13
1.48239e-11
2.79891e-13
2.03192e-11
-2.38815e-13
2.31129e-11
-7.48142e-13
2.3064e-11
-1.21456e-12
2.01797e-11
-1.56594e-12
1.45793e-11
-1.70417e-12
6.78929e-12
-1.55802e-12
-1.96771e-12
-1.27139e-12
-9.93592e-12
-9.00084e-13
-1.548e-11
-5.28777e-13
-1.73193e-11
-1.98798e-13
-1.46141e-11
-6.8356e-12
-1.60619e-13
-6.40594e-12
-4.9391e-13
-1.3866e-11
-8.56877e-13
-1.64753e-11
-1.10245e-12
-1.47979e-11
-1.10203e-12
-9.52134e-12
-9.71251e-13
-1.70974e-12
-8.20518e-13
6.97258e-12
-6.46419e-13
1.46502e-11
-4.63462e-13
2.01366e-11
-2.73947e-13
2.29238e-11
-7.91707e-14
2.28696e-11
1.37486e-13
1.99634e-11
3.60714e-13
1.43565e-11
5.74073e-13
6.57629e-12
7.51132e-13
-2.14441e-12
7.94417e-13
-9.97885e-12
6.24075e-13
-1.53093e-11
3.75558e-13
-1.70704e-11
1.17697e-13
-1.43559e-11
-6.71772e-12
-4.32312e-13
-5.9733e-12
-1.31766e-12
-1.29803e-11
-2.30725e-12
-1.54854e-11
-3.05742e-12
-1.40474e-11
-3.39367e-12
-9.18472e-12
-3.25341e-12
-1.84964e-12
-2.74704e-12
6.46657e-12
-2.02406e-12
1.39276e-11
-1.18871e-12
1.93016e-11
-3.18028e-13
2.20535e-11
5.67238e-13
2.19847e-11
1.44072e-12
1.90902e-11
2.21979e-12
1.35778e-11
2.79073e-12
6.00569e-12
3.00388e-12
-2.35721e-12
2.75457e-12
-9.72918e-12
2.07397e-12
-1.46284e-11
1.1631e-12
-1.61592e-11
3.82807e-13
-1.35752e-11
-6.33474e-12
-6.57613e-13
-5.31537e-12
-1.99714e-12
-1.16405e-11
-3.50654e-12
-1.39756e-11
-4.75067e-12
-1.28029e-11
-5.41608e-12
-8.51896e-12
-5.32052e-12
-1.94486e-12
-4.5485e-12
5.69489e-12
-3.34912e-12
1.27285e-11
-1.90807e-12
1.78609e-11
-3.64344e-13
2.05101e-11
1.19289e-12
2.04278e-11
2.67385e-12
1.76096e-11
3.9359e-12
1.23161e-11
4.78158e-12
5.16035e-12
4.95671e-12
-2.53201e-12
4.38255e-12
-9.15469e-12
3.21913e-12
-1.34646e-11
1.82036e-12
-1.47601e-11
5.88202e-13
-1.23427e-11
-5.74637e-12
-8.09784e-13
-4.50529e-12
-2.45819e-12
-9.99175e-12
-4.34696e-12
-1.20865e-11
-5.99208e-12
-1.11575e-11
-6.95528e-12
-7.55544e-12
-6.99322e-12
-1.90659e-12
-6.08737e-12
4.78936e-12
-4.52126e-12
1.11628e-11
-2.56421e-12
1.59042e-11
-4.22128e-13
1.83683e-11
1.73456e-12
1.82714e-11
3.73507e-12
1.56094e-11
5.36695e-12
1.06845e-11
6.34193e-12
4.18569e-12
6.39536e-12
-2.58513e-12
5.54281e-12
-8.30184e-12
4.03512e-12
-1.19566e-11
2.25079e-12
-1.29754e-11
7.14056e-13
-1.08057e-11
-5.03217e-12
-8.76261e-13
-3.62875e-12
-2.67148e-12
-8.19623e-12
-4.75731e-12
-1.00004e-11
-6.62732e-12
-9.28716e-12
-7.81631e-12
-6.36615e-12
-8.02598e-12
-1.69662e-12
-7.15238e-12
3.91607e-12
-5.38914e-12
9.39982e-12
-3.07764e-12
1.3593e-11
-4.92381e-13
1.57833e-11
2.10991e-12
1.56694e-11
4.46603e-12
1.32536e-11
6.28841e-12
8.8624e-12
7.23794e-12
3.23645e-12
7.14617e-12
-2.49307e-12
6.09235e-12
-7.24772e-12
4.37663e-12
-1.02406e-11
2.43006e-12
-1.10286e-11
7.72052e-13
-9.14736e-12
-4.25997e-12
-8.65298e-13
-2.76319e-12
-2.64925e-12
-6.41199e-12
-4.74319e-12
-7.90617e-12
-6.65429e-12
-7.37577e-12
-7.94858e-12
-5.07157e-12
-8.2967e-12
-1.34822e-12
-7.55725e-12
3.1769e-12
-5.80643e-12
7.64928e-12
-3.36666e-12
1.11535e-11
-5.75598e-13
1.29926e-11
2.23227e-12
1.28618e-11
4.71595e-12
1.07702e-11
6.52971e-12
7.04891e-12
7.37194e-12
2.39449e-12
7.15562e-12
-2.27649e-12
6.02116e-12
-6.113e-12
4.2873e-12
-8.50645e-12
2.35995e-12
-9.10095e-12
7.42045e-13
-7.52917e-12
-3.51779e-12
-7.98467e-13
-1.96448e-12
-2.45002e-12
-4.76018e-12
-4.40179e-12
-5.95414e-12
-6.2063e-12
-5.57101e-12
-7.47605e-12
-3.80156e-12
-7.89698e-12
-9.2703e-13
-7.30156e-12
2.58174e-12
-5.72321e-12
6.07119e-12
-3.39597e-12
8.82651e-12
-6.75862e-13
1.02727e-11
2.06048e-12
1.01258e-11
4.4342e-12
8.39675e-12
6.0947e-12
5.38867e-12
6.80823e-12
1.68121e-12
6.54049e-12
-2.0085e-12
5.45689e-12
-5.02914e-12
3.85867e-12
-6.90798e-12
2.10681e-12
-7.34883e-12
6.51873e-13
-6.07397e-12
-2.8658e-12
-7.02305e-13
-1.26195e-12
-2.1528e-12
-3.30945e-12
-3.87243e-12
-4.23426e-12
-5.47352e-12
-3.96967e-12
-6.62127e-12
-2.65357e-12
-7.04528e-12
-5.02781e-13
-6.58654e-12
2.12325e-12
-5.25055e-12
4.73544e-12
-3.2146e-12
6.79079e-12
-7.94974e-13
7.85333e-12
1.64252e-12
7.6885e-12
3.73288e-12
6.30662e-12
5.16629e-12
3.9555e-12
5.76304e-12
1.08469e-12
5.51788e-12
-1.76311e-12
4.58706e-12
-4.09809e-12
3.22716e-12
-5.54784e-12
1.74713e-12
-5.86857e-12
5.29074e-13
-4.85567e-12
-2.33661e-12
-6.01244e-13
-6.60503e-13
-1.83156e-12
-2.07891e-12
-3.28788e-12
-2.77771e-12
-4.64668e-12
-2.61064e-12
-5.62643e-12
-1.6736e-12
-6.01046e-12
-1.18529e-13
-5.66697e-12
1.77998e-12
-4.59645e-12
3.66514e-12
-2.93077e-12
5.12533e-12
-9.31731e-13
5.85451e-12
1.08746e-12
5.66953e-12
2.81552e-12
4.57878e-12
4.00067e-12
2.77056e-12
4.50422e-12
5.81349e-13
4.3254e-12
-1.58408e-12
3.59757e-12
-3.37005e-12
2.52206e-12
-4.47211e-12
1.35269e-12
-4.69898e-12
3.97859e-13
-3.90063e-12
-1.93864e-12
-5.12875e-13
-1.47435e-13
-1.54174e-12
-1.04984e-12
-2.74906e-12
-1.57017e-12
-3.87413e-12
-1.48536e-12
-4.67975e-12
-8.6777e-13
-5.0074e-12
2.09329e-13
-4.75834e-12
1.53113e-12
-3.94304e-12
2.85004e-12
-2.64725e-12
3.82975e-12
-1.0839e-12
4.29136e-12
4.9865e-13
4.08718e-12
1.86062e-12
3.21701e-12
2.81254e-12
1.81884e-12
3.24539e-12
1.48695e-13
3.14443e-12
-1.48292e-12
2.62797e-12
-2.85339e-12
1.83783e-12
-3.68177e-12
9.76559e-13
-3.8375e-12
2.76023e-13
-3.19988e-12
-1.66252e-12
-4.47136e-13
2.99887e-13
-1.31894e-12
-1.77839e-13
-2.32092e-12
-5.67988e-13
-3.25159e-12
-5.54485e-13
-3.89288e-12
-2.26285e-13
-4.16293e-12
4.79581e-13
-3.98563e-12
1.35403e-12
-3.4013e-12
2.26591e-12
-2.42605e-12
2.8547e-12
-1.2477e-12
3.11321e-12
-6.29288e-14
2.9026e-12
9.67354e-13
2.18692e-12
1.7247e-12
1.06168e-12
2.11379e-12
-2.40201e-13
2.07675e-12
-1.44569e-12
1.75953e-12
-2.53599e-12
1.23201e-12
-3.15406e-12
6.53232e-13
-3.25853e-12
1.73964e-13
-2.72041e-12
-1.48845e-12
-4.05798e-13
7.05864e-13
-1.18455e-12
6.0111e-13
-2.04852e-12
2.96188e-13
-2.83707e-12
2.34265e-13
-3.32359e-12
2.60439e-13
-3.51909e-12
6.75273e-13
-3.38867e-12
1.22382e-12
-3.02879e-12
1.90622e-12
-2.29496e-12
2.12106e-12
-1.40834e-12
2.22678e-12
-5.79001e-13
2.07345e-12
1.53733e-13
1.45437e-12
7.85467e-13
4.30134e-13
1.17272e-12
-6.27272e-13
1.15549e-12
-1.42828e-12
1.02579e-12
-2.40609e-12
7.37809e-13
-2.86589e-12
4.14832e-13
-2.93536e-12
9.11643e-14
-2.39654e-12
-1.39719e-12
-3.9025e-13
1.0963e-12
-1.16365e-12
1.37471e-12
-1.96153e-12
1.09428e-12
-2.67458e-12
9.47517e-13
-2.98054e-12
5.66608e-13
-3.04528e-12
7.40216e-13
-2.95136e-12
1.13011e-12
-2.86613e-12
1.82118e-12
-2.28279e-12
1.53793e-12
-1.51043e-12
1.45461e-12
-1.04923e-12
1.61245e-12
-6.5844e-13
1.06377e-12
-6.57665e-15
-2.21538e-13
4.97721e-13
-1.13138e-12
3.73575e-13
-1.30394e-12
3.96532e-13
-2.42886e-12
4.01097e-13
-2.87026e-12
2.9654e-13
-2.8306e-12
3.19612e-14
-2.13175e-12
-1.36512e-12
-2.98668e-13
1.39516e-12
-1.20081e-12
2.27707e-12
-2.13363e-12
2.02732e-12
-2.77687e-12
1.59098e-12
-2.92178e-12
7.11744e-13
-2.66605e-12
4.84704e-13
-2.61755e-12
1.08182e-12
-3.00901e-12
2.21286e-12
-2.44604e-12
9.75173e-13
-1.3676e-12
3.76375e-13
-1.44744e-12
1.69251e-12
-1.56876e-12
1.18529e-12
-7.92074e-13
-9.98018e-13
-1.17301e-14
-1.91152e-12
-4.19566e-13
-8.95903e-13
-2.28301e-13
-2.61992e-12
2.50957e-13
-3.3493e-12
3.67151e-13
-2.94657e-12
-6.91539e-14
-1.69523e-12
-1.43416e-12
-2.43186e-13
1.63855e-12
-1.50783e-12
3.54193e-12
-2.76304e-12
3.28277e-12
-3.53004e-12
2.35821e-12
-3.33063e-12
5.12565e-13
-1.97102e-12
-8.74669e-13
-1.97936e-12
1.09039e-12
-3.62309e-12
3.85681e-12
-2.93431e-12
2.86619e-13
-1.05555e-12
-1.50216e-12
-1.88223e-12
2.51941e-12
-3.10544e-12
2.40872e-12
-1.45366e-12
-2.64958e-12
1.0115e-13
-3.46612e-12
-1.10441e-12
3.09872e-13
-1.00179e-12
-2.72232e-12
4.54135e-13
-4.80501e-12
8.15975e-13
-3.30819e-12
-2.02271e-13
-6.76748e-13
-1.63631e-12
4.49427e-13
1.18933e-12
-1.70599e-12
5.69757e-12
-3.53898e-12
5.116e-12
-4.14194e-12
2.9614e-12
-4.27251e-12
6.43362e-13
-2.01493e-12
-3.13201e-12
-1.89004e-12
9.65724e-13
-5.07725e-12
7.04424e-12
-3.91062e-12
-8.79786e-13
2.11823e-13
-5.62439e-12
-2.13908e-12
4.87052e-12
-5.25369e-12
5.52355e-12
-1.89759e-12
-6.00547e-12
1.13224e-12
-6.49575e-12
-2.18611e-12
3.62843e-12
-2.422e-12
-2.48622e-12
1.15164e-12
-8.37843e-12
2.01426e-12
-4.17058e-12
-5.17697e-13
1.85543e-12
-2.15391e-12
2.55864e-12
-1.36912e-12
-2.88229e-12
1.11387e-11
-6.55985e-12
8.79374e-12
-5.57955e-12
1.98129e-12
-2.84053e-12
-2.09547e-12
-4.9796e-13
-5.4744e-12
-1.25436e-13
5.93384e-13
-3.8062e-12
1.07252e-11
-2.2105e-12
-2.47531e-12
2.90075e-12
-1.07355e-11
-1.85606e-12
9.62751e-12
-5.84557e-12
9.51323e-12
-1.64837e-12
-1.02025e-11
2.60515e-12
-1.07491e-11
-1.17012e-12
7.40388e-12
-1.9551e-12
-1.70106e-12
1.21585e-12
-1.15492e-11
3.60994e-12
-6.56449e-12
1.59859e-12
3.86695e-12
-5.55263e-13
8.38188e-12
-9.75091e-12
-2.9373e-12
2.2458e-11
-1.36606e-11
1.95172e-11
-5.00861e-12
-6.67064e-12
2.77049e-12
-9.87448e-12
-2.11728e-12
-5.86526e-13
-4.74504e-12
3.22124e-12
5.46693e-12
5.1332e-13
5.94211e-12
-2.9504e-12
-3.04774e-12
-1.74551e-12
-2.60629e-12
9.18615e-12
6.57029e-12
3.3674e-13
-1.06278e-12
-2.56933e-12
-5.97477e-12
-5.83702e-12
5.94962e-12
-4.52042e-12
7.11331e-12
-2.86465e-12
-9.68914e-12
5.25334e-12
-1.51238e-12
-1.47412e-11
1.77283e-11
-1.53737e-11
1.71731e-11
3.01462e-11
-3.98971e-11
6.87769e-12
4.57265e-11
-3.84045e-11
6.47994e-11
4.3653e-12
-4.94404e-11
5.84334e-11
-6.39425e-11
1.75374e-12
5.60932e-11
-2.93961e-11
3.43711e-11
4.8865e-11
-7.77477e-11
4.82816e-11
-2.36695e-12
-3.54234e-11
8.19595e-11
-4.86895e-12
-2.13683e-11
6.70371e-11
-7.15693e-11
6.78314e-12
5.76846e-11
-4.4396e-11
4.53421e-11
4.09866e-11
-8.9903e-11
5.50786e-11
-1.69566e-11
-6.24118e-11
1.22744e-10
-2.78522e-11
-4.93008e-11
8.99214e-11
-1.33147e-10
1.07094e-10
3.34765e-11
-7.33736e-11
3.06752e-11
4.85278e-11
-6.75246e-12
1.02227e-10
1.31345e-11
-6.93273e-11
7.87869e-11
-1.29595e-10
-6.63409e-13
1.35543e-10
-2.65819e-11
6.02896e-11
4.54649e-11
-1.49795e-10
6.62194e-11
-2.31215e-11
-6.43194e-11
2.12498e-10
1.33324e-11
-9.90201e-11
1.12616e-10
-1.70853e-10
2.48342e-11
1.45466e-10
-4.21257e-11
1.12302e-10
5.89635e-11
-1.90992e-10
8.4723e-11
-4.27161e-11
-8.48024e-11
2.92269e-10
-1.62266e-11
-1.17877e-10
1.17493e-10
-2.66867e-10
2.24587e-10
-1.85514e-11
-5.48222e-11
1.08222e-12
2.88942e-11
5.96702e-11
4.36389e-11
2.0469e-11
-3.01262e-11
-7.15588e-11
-3.75671e-11
3.34529e-11
3.05317e-11
8.08721e-11
1.28704e-11
-5.52331e-11
-1.36894e-11
-6.99637e-11
-8.39093e-12
1.37687e-10
4.84736e-12
6.48882e-11
-2.6221e-11
-7.49603e-11
-3.10042e-11
2.2088e-11
4.8418e-11
1.1398e-10
2.04103e-11
-2.28865e-11
-5.41259e-11
-1.06483e-10
4.08801e-11
1.21821e-10
6.39658e-11
6.38324e-11
-5.98885e-11
-1.36517e-10
-6.65174e-11
8.80704e-11
-2.62035e-11
-2.86189e-11
-5.53035e-12
8.22087e-12
1.92333e-11
1.88751e-11
-8.28454e-12
-2.60853e-12
-3.96567e-11
-6.19512e-12
-1.70608e-11
7.93559e-12
1.26868e-11
-1.68773e-11
-9.40224e-12
8.39951e-12
3.03701e-12
-2.08303e-11
4.00548e-11
-3.21706e-11
2.73542e-11
-1.35205e-11
-2.37459e-11
2.00957e-11
4.14599e-12
2.0526e-11
5.66964e-11
-3.21402e-11
-8.48749e-12
1.10579e-11
-9.94676e-12
4.23393e-11
6.17684e-11
-7.74948e-12
3.17914e-11
-2.99115e-11
-4.10034e-11
6.27733e-12
4.70669e-11
-1.50494e-11
-1.35697e-11
-4.73249e-12
-2.09631e-12
1.00327e-11
4.10972e-12
1.05602e-11
-3.13624e-12
1.30031e-11
-8.63823e-12
3.16572e-11
-1.07187e-11
2.73303e-11
-1.25506e-11
3.10979e-11
4.63175e-12
2.35047e-11
-1.32373e-11
1.59982e-11
-2.46643e-11
4.40708e-12
-1.92957e-12
4.55092e-12
1.99517e-11
1.45096e-11
1.05671e-11
-7.77413e-12
-9.85663e-12
-6.97248e-12
1.02561e-11
1.52913e-11
2.00753e-11
1.50709e-11
-7.5292e-12
-6.67803e-12
-8.16276e-12
-2.02278e-11
1.9827e-11
2.6839e-11
-6.50159e-12
-7.06827e-12
-2.16302e-12
-6.43509e-12
8.28573e-12
-6.33923e-12
1.48876e-11
-9.73834e-12
2.03144e-11
-1.40652e-11
2.66586e-11
-1.70631e-11
2.61842e-11
-1.20764e-11
2.96967e-11
1.11909e-12
2.38141e-11
-7.35493e-12
1.02845e-11
-1.11348e-11
2.04443e-12
6.31036e-12
1.87599e-12
2.012e-11
3.32773e-12
9.11524e-12
-6.22307e-12
-3.05976e-13
-6.31908e-12
1.0352e-11
2.91635e-12
1.08398e-11
-1.20253e-12
-3.41048e-12
-1.21712e-11
2.8057e-12
-1.21038e-11
1.97594e-11
1.47351e-11
-2.91522e-12
-4.15322e-12
-7.48082e-13
-8.60241e-12
5.14656e-12
-1.22341e-11
1.10015e-11
-1.55935e-11
1.50107e-11
-1.80746e-11
1.61449e-11
-1.81974e-11
1.66711e-11
-1.26028e-11
2.09413e-11
-3.15121e-12
1.61428e-11
-2.55661e-12
5.59134e-12
-5.83458e-13
8.71892e-13
1.10297e-11
3.24811e-12
1.77436e-11
2.18069e-13
1.21452e-11
-6.48315e-12
6.39511e-12
-4.82241e-12
8.69109e-12
-1.98538e-12
8.00259e-12
-7.23819e-12
1.84218e-12
-1.153e-11
7.09735e-12
-6.19293e-12
1.44222e-11
8.54214e-12
-1.13344e-12
-3.01991e-12
-3.40857e-13
-9.39515e-12
2.39922e-12
-1.49743e-11
5.56278e-12
-1.87572e-11
7.72918e-12
-2.02411e-11
8.24799e-12
-1.87164e-11
8.64127e-12
-1.29962e-11
1.05548e-11
-5.0649e-12
8.13236e-12
-1.3426e-13
2.62858e-12
4.92021e-12
7.33467e-13
1.29247e-11
1.7292e-12
1.67478e-11
1.44589e-13
1.37297e-11
-3.28696e-12
9.82656e-12
-3.52918e-12
8.93319e-12
-3.20117e-12
7.67446e-12
-6.8004e-12
5.44129e-12
-7.77532e-12
8.07215e-12
-3.64815e-12
1.02949e-11
4.89393e-12
-4.76961e-13
-2.54306e-12
-3.36256e-13
-9.53597e-12
6.72887e-13
-1.59835e-11
1.95651e-12
-2.00409e-11
2.76522e-12
-2.10499e-11
2.85654e-12
-1.88078e-11
3.00348e-12
-1.31432e-11
3.76533e-12
-5.82685e-12
2.86835e-12
7.62636e-13
7.75525e-13
7.01294e-12
4.1767e-13
1.32824e-11
1.12281e-12
1.60426e-11
4.18259e-13
1.44341e-11
-1.33055e-12
1.15753e-11
-2.16722e-12
9.76978e-12
-2.85386e-12
8.36101e-12
-4.69337e-12
7.2807e-12
-4.66984e-12
8.04853e-12
-2.03829e-12
7.66329e-12
2.8556e-12
-2.07835e-13
-2.33528e-12
-2.85813e-13
-9.45805e-12
-6.25964e-14
-1.62068e-11
2.54869e-13
-2.03585e-11
3.78181e-13
-2.11733e-11
1.84143e-13
-1.86138e-11
1.68385e-13
-1.31275e-11
5.13137e-13
-6.17166e-12
3.40224e-13
9.35499e-13
-1.57384e-13
7.5105e-12
1.61283e-13
1.29637e-11
7.78427e-13
1.54254e-11
5.78808e-13
1.46337e-11
-3.13561e-13
1.24676e-11
-1.11983e-12
1.0576e-11
-1.90485e-12
9.14599e-12
-2.80251e-12
8.17831e-12
-2.58368e-12
7.82963e-12
-1.08963e-12
6.16919e-12
1.76596e-12
-5.10704e-14
-1.00532e-13
-9.18416e-14
-6.47635e-14
-1.10558e-13
-2.44008e-13
-3.4054e-13
-3.12132e-13
-3.73072e-13
-3.42288e-13
5.76764e-14
5.04842e-13
5.16633e-13
5.77464e-14
-6.0819e-13
-1.2901e-12
-1.78287e-12
-1.60374e-12
-7.54261e-13
)
;

boundaryField
{
    top
    {
        type            calculated;
        value           nonuniform List<scalar> 
20
(
-2.28423e-12
-9.40861e-12
-1.62155e-11
-2.03856e-11
-2.11275e-11
-1.84804e-11
-1.3031e-11
-6.20008e-12
9.96424e-13
7.4797e-12
1.25638e-11
1.49782e-11
1.46219e-11
1.29265e-11
1.12419e-11
9.82788e-12
8.67106e-12
7.6505e-12
5.31969e-12
1.0117e-12
)
;
    }
    left
    {
        type            calculated;
        value           uniform 0;
    }
    right
    {
        type            calculated;
        value           uniform 0;
    }
    bottom
    {
        type            calculated;
        value           nonuniform List<scalar> 
20
(
0
0
1.54074e-33
0
0
0
0
0
0
9.86076e-32
0
0
0
0
0
0
0
0
0
0
)
;
    }
    front
    {
        type            empty;
        value           nonuniform List<scalar> 0();
    }
    back
    {
        type            empty;
        value           nonuniform List<scalar> 0();
    }
    frontAndBack
    {
        type            empty;
        value           nonuniform List<scalar> 0();
    }
}


// ************************************************************************* //
