/*--------------------------------*- C++ -*----------------------------------*\
  =========                 |
  \\      /  F ield         | OpenFOAM: The Open Source CFD Toolbox
   \\    /   O peration     | Website:  https://openfoam.org
    \\  /    A nd           | Version:  10
     \\/     M anipulation  |
\*---------------------------------------------------------------------------*/
FoamFile
{
    format      ascii;
    class       volScalarField;
    location    "0.03";
    object      T;
}
// * * * * * * * * * * * * * * * * * * * * * * * * * * * * * * * * * * * * * //

dimensions      [0 0 0 1 0 0 0];

internalField   nonuniform List<scalar> 
800
(
300
300
300.001
300.002
300.005
300.01
300.018
300.029
300.04
300.047
300.047
300.04
300.029
300.018
300.01
300.005
300.002
300.001
300
300
300
300.001
300.002
300.006
300.014
300.028
300.05
300.077
300.103
300.12
300.12
300.103
300.077
300.05
300.028
300.014
300.006
300.002
300.001
300
300.001
300.003
300.008
300.02
300.046
300.088
300.148
300.217
300.284
300.325
300.325
300.283
300.217
300.148
300.088
300.046
300.02
300.008
300.003
300.001
300.003
300.008
300.025
300.062
300.133
300.244
300.39
300.549
300.694
300.783
300.783
300.694
300.549
300.389
300.244
300.133
300.062
300.025
300.008
300.003
300.008
300.023
300.066
300.161
300.332
300.583
300.892
301.208
301.479
301.64
301.64
301.479
301.207
300.891
300.583
300.331
300.161
300.066
300.023
300.008
300.019
300.052
300.147
300.349
300.698
301.187
301.751
302.291
302.723
302.969
302.969
302.722
302.29
301.75
301.186
300.698
300.349
300.147
300.052
300.019
300.035
300.098
300.271
300.636
301.246
302.064
302.953
303.745
304.333
304.65
304.65
304.332
303.744
302.951
302.063
301.245
300.636
300.271
300.098
300.035
300.056
300.152
300.42
300.983
301.911
303.108
304.33
305.342
306.036
306.39
306.389
306.035
305.34
304.327
303.105
301.909
300.982
300.42
300.152
300.056
300.073
300.198
300.554
301.31
302.56
304.13
305.637
306.792
307.523
307.872
307.871
307.522
306.789
305.633
304.126
302.556
301.308
300.553
300.198
300.073
300.081
300.221
300.631
301.529
303.039
304.922
306.649
307.878
308.592
308.908
308.908
308.59
307.873
306.642
304.914
303.032
301.525
300.629
300.221
300.081
300.077
300.214
300.63
301.584
303.24
305.336
307.229
308.512
309.203
309.487
309.486
309.201
308.506
307.219
305.323
303.228
301.576
300.627
300.213
300.076
300.062
300.179
300.555
301.465
303.123
305.303
307.33
308.703
309.419
309.699
309.698
309.415
308.694
307.316
305.285
303.107
301.456
300.551
300.178
300.062
300.043
300.131
300.432
301.21
302.718
304.834
306.943
308.459
309.284
309.613
309.611
309.277
308.444
306.921
304.81
302.699
301.199
300.428
300.13
300.043
300.026
300.084
300.294
300.88
302.105
303.981
306.05
307.711
308.716
309.151
309.147
308.704
307.688
306.02
303.952
302.085
300.87
300.291
300.083
300.026
300.014
300.046
300.172
300.549
301.406
302.859
304.677
306.354
307.516
308.072
308.066
307.497
306.323
304.64
302.828
301.387
300.54
300.169
300.046
300.014
300.006
300.022
300.085
300.287
300.786
301.724
303.06
304.487
305.619
306.216
306.207
305.594
304.451
303.023
301.697
300.771
300.281
300.083
300.021
300.006
300.002
300.009
300.035
300.125
300.361
300.848
301.626
302.573
303.42
303.905
303.896
303.396
302.541
301.598
300.83
300.352
300.122
300.035
300.009
300.002
300.001
300.003
300.013
300.045
300.136
300.337
300.684
301.151
301.611
301.893
301.887
301.595
301.132
300.669
300.328
300.132
300.044
300.012
300.003
300.001
300
300.001
300.004
300.014
300.043
300.109
300.227
300.395
300.572
300.685
300.682
300.564
300.387
300.221
300.105
300.041
300.013
300.004
300.001
300
300
300
300.001
300.004
300.011
300.029
300.06
300.105
300.152
300.184
300.183
300.15
300.102
300.058
300.028
300.011
300.004
300.001
300
300
300
300
300
300.001
300.003
300.006
300.013
300.022
300.031
300.037
300.037
300.031
300.021
300.013
300.006
300.002
300.001
300
300
300
300
300
300
300
300.001
300.001
300.002
300.004
300.005
300.006
300.006
300.005
300.004
300.002
300.001
300
300
300
300
300
300
300
300
300
300
300
300
300.001
300.001
300.001
300.001
300.001
300.001
300
300
300
300
300
300
300
300
300
300
300
300
300
300
300
300
300
300
300
300
300
300
300
300
300
300
300
300
300
300
300
300
300
300
300
300
300
300
300
300
300
300
300
300
300
300
300
300
300
300
300
300
300
300
300
300
300
300
300
300
300
300
300
300
300
300
300
300
300
300
300
300
300
300
300
300
300
300
300
300
300
300
300
300
300
300
300
300
300
300
300
300
300
300
300
300
300
300
300
300
300
300
300
300
300
300
300
300
300
300
300
300
300
300
300
300
300
300
300
300
300
300
300
300
300
300
300
300
300
300
300
300
300
300
300
300
300
300
300
300
300
300
300
300
300
300
300
300
300
300
300
300
300
300
300
300
300
300
300
300
300
300
300
300
300
300
300
300
300
300
300
300
300
300
300
300
300
300
300
300
300
300
300
300
300
300
300
300
300
300
300
300
300
300
300
300
300
300
300
300
300
300
300
300
300
300
300
300
300
300
300
300
300
300
300
300
300
300
300
300
300
300
300
300
300
300
300
300
300
300
300
300
300
300
300
300
300
300
300
300
300
300
300
300
300
300
300
300
300
300
300
300
300
300
300
300
300
300
300
300
300
300
300
300
300
300
300
300
300
300
300
300
300
300
300
300
300
300
300
300
300
300
300
300
300
300
300
300
300
300
300
300
300
300
300
300
300
300
300
300
300
300
300
300
300
300
300
300
300
300
300
300
300
300
300
300
300
300
300
300
300
300
300
300
300
300
300
300
300
300
300
300
300
300
300
300
300
300
300
300
300
300
300
300
300
300
300
)
;

boundaryField
{
    top
    {
        type            inletOutlet;
        inletValue      uniform 300;
        value           nonuniform List<scalar> 
20
(
300
300
300
300
300
300
300
300
300
300
300
300
300
300
300
300
300
300
300
300
)
;
    }
    left
    {
        type            zeroGradient;
    }
    right
    {
        type            zeroGradient;
    }
    bottom
    {
        type            zeroGradient;
    }
    front
    {
        type            empty;
    }
    back
    {
        type            empty;
    }
    frontAndBack
    {
        type            empty;
    }
}


// ************************************************************************* //
