/*--------------------------------*- C++ -*----------------------------------*\
  =========                 |
  \\      /  F ield         | OpenFOAM: The Open Source CFD Toolbox
   \\    /   O peration     | Website:  https://openfoam.org
    \\  /    A nd           | Version:  10
     \\/     M anipulation  |
\*---------------------------------------------------------------------------*/
FoamFile
{
    format      ascii;
    class       volVectorField;
    location    "0.03";
    object      U;
}
// * * * * * * * * * * * * * * * * * * * * * * * * * * * * * * * * * * * * * //

dimensions      [0 1 -1 0 0 0 0];

internalField   nonuniform List<vector> 
800
(
(-1.41294e-06 1.25113e-06 0)
(4.53131e-05 -1.19336e-05 0)
(0.000141954 -2.15435e-05 0)
(0.000255189 -2.28509e-05 0)
(0.000352516 -1.70441e-05 0)
(0.000407724 -6.52633e-06 0)
(0.000404658 6.33532e-06 0)
(0.000340425 1.72698e-05 0)
(0.000223238 2.69881e-05 0)
(7.02005e-05 3.16722e-05 0)
(-9.45306e-05 3.10417e-05 0)
(-0.00024574 2.60876e-05 0)
(-0.000361098 1.65471e-05 0)
(-0.000424263 5.91379e-06 0)
(-0.000426267 -6.70725e-06 0)
(-0.000368589 -1.84102e-05 0)
(-0.000266905 -2.51238e-05 0)
(-0.000149792 -2.16737e-05 0)
(-4.94993e-05 -1.38035e-05 0)
(6.28931e-07 3.30985e-07 0)
(1.15626e-05 -4.46448e-05 0)
(0.000149086 -0.000144656 0)
(0.000376637 -0.000204086 0)
(0.000628627 -0.000202157 0)
(0.000838037 -0.00014519 0)
(0.00095211 -4.91992e-05 0)
(0.000937482 6.74997e-05 0)
(0.000785935 0.000175521 0)
(0.000516946 0.000261434 0)
(0.000169293 0.000306959 0)
(-0.000205823 0.000305165 0)
(-0.00055201 0.000258215 0)
(-0.000819629 0.000173668 0)
(-0.000970223 6.56759e-05 0)
(-0.000981981 -5.24203e-05 0)
(-0.000863528 -0.000150743 0)
(-0.000648816 -0.000210655 0)
(-0.000389654 -0.000209312 0)
(-0.000154851 -0.000152392 0)
(-1.25387e-05 -4.8438e-05 0)
(2.20962e-05 -0.000144748 0)
(0.000232565 -0.00037822 0)
(0.000552579 -0.000496384 0)
(0.000894304 -0.00047731 0)
(0.00117066 -0.000334837 0)
(0.00131366 -0.00010435 0)
(0.00128708 0.000167836 0)
(0.0010786 0.000431446 0)
(0.000709825 0.000633855 0)
(0.00023594 0.000743312 0)
(-0.000275357 0.0007412 0)
(-0.000748468 0.000629117 0)
(-0.00111397 0.000427209 0)
(-0.0013208 0.000166254 0)
(-0.00134638 -0.000112282 0)
(-0.00119822 -0.000345579 0)
(-0.000915019 -0.000492088 0)
(-0.000565192 -0.000510124 0)
(-0.000238253 -0.000391601 0)
(-2.35284e-05 -0.000151788 0)
(3.04328e-05 -0.000283648 0)
(0.000293772 -0.000685514 0)
(0.000678624 -0.000867457 0)
(0.00108206 -0.0008197 0)
(0.00140294 -0.000564809 0)
(0.00156307 -0.000163077 0)
(0.00151664 0.000303348 0)
(0.0012607 0.00075477 0)
(0.000828477 0.00109997 0)
(0.000275903 0.00128857 0)
(-0.000320028 0.0012864 0)
(-0.000872682 0.00109449 0)
(-0.0013036 0.00074688 0)
(-0.00155375 0.000298272 0)
(-0.00159643 -0.000172492 0)
(-0.00143344 -0.000582497 0)
(-0.00110446 -0.00084241 0)
(-0.000690806 -0.000891054 0)
(-0.000297425 -0.000704053 0)
(-3.07665e-05 -0.00029314 0)
(3.52357e-05 -0.000448896 0)
(0.000331198 -0.0010412 0)
(0.000758738 -0.00129177 0)
(0.00120303 -0.00120526 0)
(0.00154915 -0.000817167 0)
(0.00171301 -0.000219023 0)
(0.00164967 0.000471316 0)
(0.00136234 0.00112146 0)
(0.000890915 0.0016213 0)
(0.000295963 0.00189503 0)
(-0.000343138 0.00189315 0)
(-0.000937373 0.00161478 0)
(-0.00140706 0.00111166 0)
(-0.0016903 0.000458521 0)
(-0.00174776 -0.000230414 0)
(-0.00157851 -0.000841535 0)
(-0.00122607 -0.00123603 0)
(-0.000773319 -0.0013258 0)
(-0.000336429 -0.00106639 0)
(-3.53839e-05 -0.000460361 0)
(3.55222e-05 -0.000627709 0)
(0.000345824 -0.00142543 0)
(0.000794809 -0.00174903 0)
(0.00125402 -0.00161207 0)
(0.00160192 -0.00107499 0)
(0.00175472 -0.000263162 0)
(0.0016749 0.000659106 0)
(0.0013719 0.00151355 0)
(0.000888569 0.00216735 0)
(0.000290822 0.00252201 0)
(-0.000344703 0.00251937 0)
(-0.000939314 0.00215772 0)
(-0.00141853 0.00150115 0)
(-0.00171698 0.000640779 0)
(-0.00178893 -0.000282212 0)
(-0.00162907 -0.00110396 0)
(-0.0012766 -0.00164896 0)
(-0.000812273 -0.00179021 0)
(-0.000357595 -0.00145819 0)
(-3.88785e-05 -0.000644097 0)
(3.74747e-05 -0.000810456 0)
(0.000345195 -0.00181613 0)
(0.00078134 -0.00220909 0)
(0.00122013 -0.00201238 0)
(0.00154519 -0.00131976 0)
(0.00167741 -0.000289766 0)
(0.00158552 0.000857475 0)
(0.00128522 0.00190849 0)
(0.000823095 0.00270292 0)
(0.00026393 0.00312718 0)
(-0.000326932 0.00312313 0)
(-0.000885035 0.00269023 0)
(-0.00134258 0.00189011 0)
(-0.0016349 0.000832607 0)
(-0.00171754 -0.000318773 0)
(-0.00157686 -0.00135355 0)
(-0.001245 -0.00205516 0)
(-0.000801845 -0.00225348 0)
(-0.000359154 -0.00185815 0)
(-4.07711e-05 -0.000834902 0)
(3.48938e-05 -0.000986144 0)
(0.000315253 -0.0021854 0)
(0.000703843 -0.00263387 0)
(0.00108665 -0.00237564 0)
(0.00136339 -0.00153219 0)
(0.0014672 -0.000299742 0)
(0.00137461 0.00105304 0)
(0.00110309 0.00227612 0)
(0.000698413 0.0031888 0)
(0.000217575 0.00366824 0)
(-0.000286742 0.00366349 0)
(-0.000765216 0.00317305 0)
(-0.0011642 0.0022503 0)
(-0.00142863 0.00102052 0)
(-0.00151281 -0.000338493 0)
(-0.00139685 -0.00157635 0)
(-0.00110878 -0.00242617 0)
(-0.000716761 -0.00268421 0)
(-0.000321673 -0.00223478 0)
(-3.69466e-05 -0.00101689 0)
(3.02802e-05 -0.00113923 0)
(0.000255242 -0.00249977 0)
(0.000560261 -0.00298894 0)
(0.000858416 -0.00267454 0)
(0.00107144 -0.00169953 0)
(0.00114633 -0.000297291 0)
(0.00106851 0.00122371 0)
(0.000850718 0.00258713 0)
(0.00053107 0.00358978 0)
(0.00015798 0.00411027 0)
(-0.000231248 0.0041044 0)
(-0.000602783 0.00357118 0)
(-0.000919104 0.00255525 0)
(-0.00112976 0.0011833 0)
(-0.00119738 -0.000346489 0)
(-0.00110962 -0.00175808 0)
(-0.000884639 -0.00273469 0)
(-0.000575548 -0.00305008 0)
(-0.000260266 -0.00255462 0)
(-3.05959e-05 -0.00117297 0)
(2.08939e-05 -0.00125305 0)
(0.000165285 -0.00272633 0)
(0.000355046 -0.00324209 0)
(0.000542268 -0.00288895 0)
(0.000681631 -0.00181828 0)
(0.00073608 -0.000294323 0)
(0.000688412 0.00135071 0)
(0.000541828 0.00281872 0)
(0.000328377 0.00388112 0)
(8.35692e-05 0.00442839 0)
(-0.000169135 0.0044211 0)
(-0.000411819 0.00386016 0)
(-0.000620303 0.00278084 0)
(-0.00075731 0.00129996 0)
(-0.000792514 -0.000355493 0)
(-0.000726135 -0.00188967 0)
(-0.000577404 -0.00295829 0)
(-0.000378759 -0.00331597 0)
(-0.000176213 -0.00279016 0)
(-2.31396e-05 -0.00129097 0)
(6.52843e-06 -0.00131159 0)
(5.13328e-05 -0.00284046 0)
(0.000108308 -0.00336895 0)
(0.000169401 -0.00300342 0)
(0.000229541 -0.00189133 0)
(0.000270267 -0.000304231 0)
(0.000263075 0.00142137 0)
(0.000202569 0.00295163 0)
(0.000109959 0.00404658 0)
(5.0338e-06 0.00460557 0)
(-0.000100261 0.00459689 0)
(-0.000201738 0.00402155 0)
(-0.00028789 0.00290674 0)
(-0.000339094 0.00135968 0)
(-0.000335621 -0.000376729 0)
(-0.000287003 -0.00197128 0)
(-0.000217446 -0.00308346 0)
(-0.000141544 -0.00345745 0)
(-7.04001e-05 -0.00291621 0)
(-1.19761e-05 -0.00135875 0)
(-6.52522e-06 -0.00130883 0)
(-6.06798e-05 -0.00283239 0)
(-0.000138016 -0.00336111 0)
(-0.000205608 -0.00300917 0)
(-0.000231012 -0.00191755 0)
(-0.000213076 -0.000327181 0)
(-0.000179691 0.00142553 0)
(-0.000145565 0.00297405 0)
(-0.000110098 0.00407786 0)
(-7.32934e-05 0.00463789 0)
(-3.65015e-05 0.00462763 0)
(4.35453e-06 0.00404684 0)
(4.84036e-05 0.0029205 0)
(9.40544e-05 0.00135277 0)
(0.000138442 -0.000409081 0)
(0.000164831 -0.00200455 0)
(0.000150882 -0.00310355 0)
(0.000102658 -0.00346855 0)
(4.51264e-05 -0.00292262 0)
(3.63633e-06 -0.00136649 0)
(-1.85765e-05 -0.00124789 0)
(-0.000163676 -0.00270718 0)
(-0.000365453 -0.00322234 0)
(-0.00055354 -0.00290797 0)
(-0.00066894 -0.00188437 0)
(-0.000685818 -0.000356152 0)
(-0.000613786 0.00135801 0)
(-0.000484158 0.00288281 0)
(-0.000324229 0.00397494 0)
(-0.000151551 0.0045316 0)
(2.49304e-05 0.00451935 0)
(0.00020296 0.00393666 0)
(0.00037266 0.00281863 0)
(0.00051478 0.00127255 0)
(0.000600765 -0.000449915 0)
(0.000599552 -0.00198406 0)
(0.000499273 -0.00301675 0)
(0.000326503 -0.00334911 0)
(0.000144272 -0.00281547 0)
(1.53243e-05 -0.001315 0)
(-2.89101e-05 -0.00113628 0)
(-0.000248403 -0.00247911 0)
(-0.000552413 -0.00296687 0)
(-0.000847362 -0.00270448 0)
(-0.00105071 -0.00178399 0)
(-0.00110883 -0.000382315 0)
(-0.00101384 0.00122588 0)
(-0.000805658 0.00268624 0)
(-0.000533282 0.00374398 0)
(-0.000229625 0.0042875 0)
(8.4269e-05 0.00427246 0)
(0.00039349 0.00369776 0)
(0.000676535 0.00260999 0)
(0.000898497 0.00112643 0)
(0.00100873 -0.000491396 0)
(0.000967676 -0.00190119 0)
(0.000781797 -0.00282819 0)
(0.000505998 -0.00311237 0)
(0.000223935 -0.00260839 0)
(2.37556e-05 -0.00121537 0)
(-3.59376e-05 -0.000986393 0)
(-0.000305387 -0.00217333 0)
(-0.000680783 -0.00261925 0)
(-0.00105707 -0.00240949 0)
(-0.00133483 -0.00161876 0)
(-0.00144032 -0.000390467 0)
(-0.00134662 0.0010523 0)
(-0.00108637 0.00240273 0)
(-0.000721945 0.00339788 0)
(-0.000302982 0.00391325 0)
(0.000134637 0.00389532 0)
(0.000559701 0.00334319 0)
(0.000935307 0.00231357 0)
(0.00120896 0.000938637 0)
(0.00131854 -0.000516592 0)
(0.00123355 -0.00175611 0)
(0.000980944 -0.00255474 0)
(0.000628922 -0.00278583 0)
(0.000274699 -0.00232448 0)
(2.8037e-05 -0.00108181 0)
(-3.88758e-05 -0.000814532 0)
(-0.000330819 -0.00182152 0)
(-0.000741005 -0.00221296 0)
(-0.00116072 -0.00205035 0)
(-0.0014858 -0.00139888 0)
(-0.00163476 -0.00036641 0)
(-0.00156468 0.000868841 0)
(-0.00128845 0.00206111 0)
(-0.000866322 0.00296129 0)
(-0.000363534 0.00343065 0)
(0.000167402 0.00340953 0)
(0.000676591 0.00289779 0)
(0.00110918 0.00195962 0)
(0.00139872 0.00074077 0)
(0.00148794 -0.000513246 0)
(0.00136455 -0.00156096 0)
(0.00106926 -0.00222464 0)
(0.000679263 -0.00240389 0)
(0.000296009 -0.00199732 0)
(3.05941e-05 -0.00092981 0)
(-3.83351e-05 -0.000637607 0)
(-0.000327047 -0.00145723 0)
(-0.000735711 -0.00178709 0)
(-0.00115957 -0.0016646 0)
(-0.00149926 -0.00114515 0)
(-0.00167478 -0.000309009 0)
(-0.00163565 0.000703856 0)
(-0.00137635 0.00170156 0)
(-0.000941939 0.00247471 0)
(-0.000402679 0.00288027 0)
(0.000173282 0.00285579 0)
(0.000718725 0.0024025 0)
(0.00116378 0.00158801 0)
(0.00143933 0.000558138 0)
(0.00150185 -0.000480787 0)
(0.00135589 -0.00133675 0)
(0.00105063 -0.00187216 0)
(0.000661664 -0.00200845 0)
(0.000285651 -0.0016632 0)
(2.86047e-05 -0.000775689 0)
(-3.54995e-05 -0.000469356 0)
(-0.000301835 -0.0011093 0)
(-0.000680827 -0.00137691 0)
(-0.00107761 -0.0012872 0)
(-0.00140269 -0.000883837 0)
(-0.00158326 -0.0002293 0)
(-0.00156837 0.000569058 0)
(-0.00134362 0.00136259 0)
(-0.000938657 0.0019879 0)
(-0.000416633 0.00231672 0)
(0.000147053 0.00228898 0)
(0.000675358 0.00190675 0)
(0.00109297 0.00123464 0)
(0.00133752 0.000401354 0)
(0.00137959 -0.000429601 0)
(0.00123331 -0.00110989 0)
(0.000948218 -0.00153298 0)
(0.00059265 -0.00163479 0)
(0.000252641 -0.00135137 0)
(2.39098e-05 -0.000634326 0)
(-3.16692e-05 -0.000318411 0)
(-0.000265161 -0.000796952 0)
(-0.000598091 -0.00100684 0)
(-0.000948444 -0.000943391 0)
(-0.00123862 -0.000638887 0)
(-0.00140628 -0.000142481 0)
(-0.00140619 0.000464041 0)
(-0.00122165 0.00106816 0)
(-0.000872183 0.0015455 0)
(-0.000410224 0.00179463 0)
(9.30655e-05 0.00176353 0)
(0.000562157 0.00145429 0)
(0.000926594 0.000922322 0)
(0.00113451 0.000270657 0)
(0.00116628 -0.000375939 0)
(0.00103856 -0.000905099 0)
(0.000795024 -0.00123372 0)
(0.000493464 -0.00130847 0)
(0.000206941 -0.00108173 0)
(1.79667e-05 -0.000515238 0)
(-2.79901e-05 -0.000188048 0)
(-0.000226231 -0.000528671 0)
(-0.000507905 -0.000688715 0)
(-0.000804674 -0.000646632 0)
(-0.00105122 -0.000424972 0)
(-0.00119634 -6.03568e-05 0)
(-0.00120353 0.000384738 0)
(-0.00105849 0.000827155 0)
(-0.000774984 0.00117343 0)
(-0.000394458 0.00134975 0)
(2.2652e-05 0.00131486 0)
(0.000411362 0.00107051 0)
(0.000712371 0.000660065 0)
(0.000884683 0.000161403 0)
(0.00091386 -0.000332339 0)
(0.000814851 -0.000737987 0)
(0.000622784 -0.000989218 0)
(0.000383895 -0.00104275 0)
(0.000157528 -0.000863965 0)
(1.19372e-05 -0.000422369 0)
(-2.522e-05 -7.7257e-05 0)
(-0.000191857 -0.000304011 0)
(-0.000425587 -0.000423645 0)
(-0.000671286 -0.000399305 0)
(-0.000874612 -0.000246775 0)
(-0.000994811 1.14737e-05 0)
(-0.00100499 0.000326474 0)
(-0.000895756 0.000639587 0)
(-0.000677009 0.000878301 0)
(-0.000379839 0.000994341 0)
(-5.31281e-05 0.000955413 0)
(0.000252631 0.000762393 0)
(0.000491514 0.000447307 0)
(0.000632518 6.86151e-05 0)
(0.000662801 -0.000304354 0)
(0.00059463 -0.000613893 0)
(0.000454961 -0.000803542 0)
(0.000278373 -0.0008406 0)
(0.000110962 -0.000699277 0)
(6.64682e-06 -0.000355362 0)
(-2.36569e-05 1.76183e-05 0)
(-0.000166347 -0.000116343 0)
(-0.000360877 -0.000205477 0)
(-0.00056435 -0.000196406 0)
(-0.000729943 -0.000103324 0)
(-0.00082622 7.07606e-05 0)
(-0.000836582 0.000284558 0)
(-0.000758214 0.000501147 0)
(-0.000596753 0.000653646 0)
(-0.000372447 0.000723105 0)
(-0.000127436 0.000681415 0)
(0.000103089 0.000525351 0)
(0.000287488 0.000277721 0)
(0.000404106 -1.23316e-05 0)
(0.000436352 -0.000291539 0)
(0.000396409 -0.000531708 0)
(0.000305536 -0.000673491 0)
(0.000185785 -0.000698475 0)
(7.11626e-05 -0.000582848 0)
(2.25121e-06 -0.00031103 0)
(-2.27168e-05 0.000101291 0)
(-0.000152237 4.50621e-05 0)
(-0.000319543 -2.45309e-05 0)
(-0.000493761 -2.97887e-05 0)
(-0.000629213 6.48109e-06 0)
(-0.000701035 0.000115918 0)
(-0.000706484 0.000254991 0)
(-0.000655875 0.000408817 0)
(-0.000543628 0.000487314 0)
(-0.000373533 0.000521358 0)
(-0.000196747 0.000484573 0)
(-3.29551e-05 0.000352778 0)
(0.000107031 0.00014117 0)
(0.000211392 -9.07946e-05 0)
(0.000244019 -0.000287636 0)
(0.000226678 -0.000487733 0)
(0.000181247 -0.000593053 0)
(0.000112072 -0.000609971 0)
(4.17257e-05 -0.000503826 0)
(-1.10996e-06 -0.000284764 0)
(-2.30776e-05 0.000181909 0)
(-0.000151331 0.000204546 0)
(-0.00030602 0.000148043 0)
(-0.000467479 0.000126569 0)
(-0.000578768 0.000100209 0)
(-0.000617572 0.000158354 0)
(-0.000607698 0.000244354 0)
(-0.000590178 0.000369609 0)
(-0.000526135 0.000364868 0)
(-0.000378573 0.000365119 0)
(-0.000255343 0.000361897 0)
(-0.000163707 0.000248242 0)
(-6.15745e-05 3.86714e-05 0)
(6.21756e-05 -0.000167626 0)
(9.13375e-05 -0.000271617 0)
(8.05886e-05 -0.000475578 0)
(8.50192e-05 -0.00056513 0)
(6.66934e-05 -0.000568623 0)
(2.79247e-05 -0.000447022 0)
(-4.89222e-06 -0.000272663 0)
(-6.60687e-06 0.000231737 0)
(-0.000150776 0.000343791 0)
(-0.000319482 0.00027873 0)
(-0.000493345 0.000218036 0)
(-0.000585679 7.79871e-05 0)
(-0.000571892 7.37403e-05 0)
(-0.000524552 0.000165159 0)
(-0.000566096 0.000338805 0)
(-0.000565827 0.000202433 0)
(-0.000369898 0.000152437 0)
(-0.000275912 0.000274836 0)
(-0.000296152 0.000164586 0)
(-0.000237994 -0.000143135 0)
(-3.53764e-05 -0.000341568 0)
(-2.53238e-05 -0.000270866 0)
(-7.52248e-05 -0.000514533 0)
(1.28592e-05 -0.000625409 0)
(6.88737e-05 -0.000582671 0)
(2.99738e-05 -0.000397427 0)
(-2.3702e-05 -0.000286009 0)
(1.73772e-05 0.000425709 0)
(-0.000151338 0.000682283 0)
(-0.000400026 0.0006472 0)
(-0.000634276 0.000538899 0)
(-0.000712665 0.000341439 0)
(-0.000527553 0.000209096 0)
(-0.000347729 0.000342822 0)
(-0.000559251 0.000649605 0)
(-0.000709091 0.000271544 0)
(-0.000286009 8.11051e-05 0)
(-0.000190192 0.000454542 0)
(-0.000517842 0.000343093 0)
(-0.000495635 -0.000218742 0)
(1.15514e-07 -0.000406636 0)
(-2.70621e-05 -5.50412e-05 0)
(-0.000260297 -0.000467867 0)
(-2.98078e-05 -0.000708202 0)
(0.000178328 -0.000559183 0)
(5.26205e-05 -0.00020243 0)
(-6.9743e-05 -0.000262946 0)
(0.000136584 -5.80128e-05 0)
(-7.12834e-05 0.000412802 0)
(-0.000496985 0.000349512 0)
(-0.000761583 -1.57846e-05 0)
(-0.000906361 -0.000225635 0)
(-0.000516264 -0.00046303 0)
(-5.52653e-05 -0.000158098 0)
(-0.000598487 0.000458538 0)
(-0.00107141 -0.000161569 0)
(-0.000110958 -0.000419593 0)
(0.000123276 0.00031792 0)
(-0.000854892 0.000258274 0)
(-0.000867984 -0.000723467 0)
(0.000239717 -0.000883347 0)
(5.25277e-05 -0.000159181 0)
(-0.00065086 -0.000765996 0)
(-8.96319e-05 -0.00114455 0)
(0.000517966 -0.000880878 0)
(0.000101657 -0.000233513 0)
(-0.000238057 -0.000349189 0)
(0.000312076 0.00113848 0)
(0.000244315 0.00251189 0)
(-0.00100316 0.00226678 0)
(-0.00107965 0.00143367 0)
(-0.00113656 0.00101183 0)
(-0.000196115 0.000545497 0)
(0.000655834 0.000692185 0)
(-0.00039262 0.00147976 0)
(-0.00131173 0.000545204 0)
(0.000422524 0.000138016 0)
(0.000920187 0.00116332 0)
(-0.00128325 0.000779729 0)
(-0.00131674 -0.00030335 0)
(0.000810399 -0.000581085 0)
(0.000526471 0.000189984 0)
(-0.00101073 -0.000590935 0)
(-0.000105788 -0.000720418 0)
(0.0011028 -0.000907852 0)
(0.000319797 -0.000227008 0)
(-0.000370885 0.000339713 0)
(0.00120061 -0.00196316 0)
(0.00110457 0.00166472 0)
(-0.00199733 0.00123611 0)
(-0.00135299 -0.00251911 0)
(-0.00143062 -0.00285441 0)
(0.000266258 -0.00190558 0)
(0.00113611 -0.000767333 0)
(-0.00013171 -0.00041129 0)
(-0.00127282 -0.00162509 0)
(0.000984607 -0.00161652 0)
(0.00205104 0.000783432 0)
(-0.00173302 -0.000259206 0)
(-0.00111979 -0.00174246 0)
(0.0011549 -0.00200693 0)
(0.00130093 -0.00106677 0)
(-0.00108054 -0.00122551 0)
(-0.000370786 -0.000611555 0)
(0.000949391 -0.00270933 0)
(0.001028 -0.00215379 0)
(0.000149962 0.00157806 0)
(0.00474437 -0.000626357 0)
(0.00439385 0.00766064 0)
(-0.00345834 0.00721836 0)
(-0.00270365 0.00184809 0)
(0.00239226 -0.000681551 0)
(0.00474454 0.002029 0)
(0.00240556 0.00382564 0)
(0.000799325 0.00577406 0)
(0.00151965 0.00121483 0)
(0.00330419 0.00196284 0)
(0.00347332 0.00524926 0)
(-9.53965e-05 0.00526233 0)
(0.000931783 0.00206167 0)
(0.00237804 0.000936652 0)
(0.00327583 0.00258606 0)
(0.00196918 0.00169848 0)
(-0.00169568 0.00218725 0)
(-0.00179308 -0.00213625 0)
(0.00395993 -0.00232853 0)
(0.00333619 0.00340412 0)
(0.00508118 -0.0131231 0)
(0.00556608 0.00674215 0)
(0.00383011 0.00942236 0)
(-0.000933523 -0.0105304 0)
(0.00620586 -0.0150344 0)
(0.00591892 -0.00394308 0)
(0.00126543 0.00415242 0)
(0.00169938 -0.0135844 0)
(0.00194057 -0.00778839 0)
(0.00366801 -0.0117539 0)
(-0.00172361 -0.00338228 0)
(0.0101313 -0.012625 0)
(0.0050884 -0.0059679 0)
(0.00489714 -0.00708663 0)
(0.00264685 -0.0132518 0)
(0.00961986 -0.00170588 0)
(-0.00292257 0.00497424 0)
(-0.00450838 -0.0102126 0)
(0.00831662 -0.019821 0)
(0.00812512 0.0117861 0)
(0.000466956 -0.0118286 0)
(-0.00470081 0.00847053 0)
(0.00785325 0.0214017 0)
(0.00528742 -0.0193992 0)
(0.000614231 -0.0254863 0)
(-0.00357832 0.044884 0)
(0.00254671 0.0125537 0)
(0.0028044 -0.0514985 0)
(-0.000276432 0.00266183 0)
(0.0035596 0.0668017 0)
(0.00349035 -0.0358585 0)
(0.0113856 -0.0561909 0)
(0.00156806 0.0493021 0)
(0.00604962 0.0397288 0)
(-0.000567575 -0.0622401 0)
(0.00057039 -0.0148658 0)
(0.00319583 0.0807886 0)
(0.00532225 -0.0273627 0)
(0.00210425 -0.0734954 0)
(-0.0147696 0.0617513 0)
(-0.00235004 -0.0101439 0)
(-0.00494665 0.00349091 0)
(0.00182235 0.00721809 0)
(0.0014653 -0.00146393 0)
(-0.00218867 -0.00246438 0)
(-0.00571584 0.00675502 0)
(-0.00380454 0.000415084 0)
(0.000563886 0.00364854 0)
(0.00399132 -0.00194148 0)
(0.002089 0.00283818 0)
(0.00207789 -0.00214165 0)
(0.00282688 0.0019585 0)
(0.00157147 0.0136759 0)
(0.00234666 0.00365553 0)
(0.00190019 -0.00287572 0)
(0.00136453 0.0132748 0)
(0.00596846 0.0116005 0)
(0.00510948 -0.00945434 0)
(0.000718576 -0.00743272 0)
(-0.00456571 0.0146086 0)
(-0.00152884 -0.0037203 0)
(-0.00296045 8.1379e-05 0)
(0.000419902 0.00212111 0)
(0.00217393 -0.00057682 0)
(0.00329381 -0.000989202 0)
(0.00419786 0.000297622 0)
(0.00336107 -0.00382162 0)
(0.00543553 -0.000502334 0)
(0.00809667 -0.00261065 0)
(0.00257856 -0.0041693 0)
(-0.00101251 -0.00406619 0)
(0.00228573 0.00121979 0)
(0.00410677 0.00469229 0)
(-0.00137312 -0.00298795 0)
(-0.00305573 -0.00124934 0)
(0.0029427 0.00493272 0)
(0.00399903 -0.00040216 0)
(-0.00122201 -0.00365669 0)
(-0.00194683 0.00130185 0)
(-0.00145851 0.00927048 0)
(-0.000632073 -0.00207881 0)
(-0.00144339 -0.00102892 0)
(0.000444494 -0.000566096 0)
(0.00245742 -0.00133859 0)
(0.0038953 -0.00232858 0)
(0.00453768 -0.00320055 0)
(0.00443506 -0.00295901 0)
(0.0056595 0.000417219 0)
(0.0065245 -0.00277928 0)
(0.00279077 -0.0043912 0)
(-0.000199034 0.000108828 0)
(0.000709961 0.00367146 0)
(0.00150075 0.000986371 0)
(-0.000962406 -0.00195262 0)
(-0.00199883 0.00168428 0)
(0.000666438 0.00237257 0)
(0.000872995 -0.00214927 0)
(-0.00212749 -0.000475593 0)
(-0.00268523 0.00431196 0)
(-0.000833469 0.00374911 0)
(-0.000307373 -0.00101126 0)
(-0.000663619 -0.00159089 0)
(0.000292405 -0.00206772 0)
(0.0016874 -0.00276364 0)
(0.00282636 -0.0033239 0)
(0.00311849 -0.00347981 0)
(0.00300635 -0.0025525 0)
(0.00393092 -0.000667527 0)
(0.00431976 -0.000829054 0)
(0.00188067 -0.000655876 0)
(-0.000120733 0.00192616 0)
(0.000546941 0.00353609 0)
(0.000784065 0.00252366 0)
(-0.00091523 0.00100261 0)
(-0.00146345 0.00163482 0)
(-0.000116186 0.00165532 0)
(-0.000525553 0.000197851 0)
(-0.00234586 0.00123919 0)
(-0.00206262 0.00323567 0)
(-0.000359135 0.00228649 0)
(-0.0001117 -0.000683986 0)
(-0.000280055 -0.00183148 0)
(0.000119261 -0.00282578 0)
(0.000822953 -0.00355616 0)
(0.00143872 -0.00392041 0)
(0.00160561 -0.00372948 0)
(0.00158185 -0.00258269 0)
(0.00201827 -0.000912415 0)
(0.0021376 -0.000133923 0)
(0.000948045 0.000730648 0)
(-3.31515e-06 0.00255472 0)
(0.000301025 0.00349465 0)
(0.000378978 0.00266575 0)
(-0.000401714 0.00174285 0)
(-0.000798851 0.00176472 0)
(-0.000490957 0.00155744 0)
(-0.000920042 0.000899422 0)
(-0.0017251 0.00159336 0)
(-0.00133545 0.00240771 0)
(-0.000191534 0.00126103 0)
(-4.20682e-05 -0.000543088 0)
(-0.000131797 -0.00190929 0)
(-6.2423e-06 -0.00314996 0)
(0.000271767 -0.00394349 0)
(0.000518219 -0.00416874 0)
(0.000555646 -0.00376255 0)
(0.000529208 -0.0026261 0)
(0.000713977 -0.00110751 0)
(0.000769202 0.00013251 0)
(0.000312706 0.00132252 0)
(-1.55165e-05 0.00269633 0)
(0.000178371 0.00331003 0)
(0.000245245 0.00286537 0)
(-9.54927e-05 0.00219708 0)
(-0.000381076 0.00187963 0)
(-0.000456452 0.00161249 0)
(-0.000771949 0.00132842 0)
(-0.00108359 0.00162598 0)
(-0.00077269 0.00173479 0)
(-9.91909e-05 0.000723318 0)
(-1.39359e-05 -0.000481784 0)
(-6.52557e-05 -0.00190387 0)
(-4.90145e-05 -0.00323881 0)
(2.61792e-05 -0.00406425 0)
(8.42796e-05 -0.00423439 0)
(5.66033e-05 -0.00373884 0)
(1.43077e-05 -0.00262498 0)
(8.4729e-05 -0.00119185 0)
(0.000125661 0.000194552 0)
(7.68878e-06 0.00149065 0)
(-3.91684e-05 0.00263321 0)
(0.000107422 0.00313694 0)
(0.000179714 0.00291668 0)
(4.19999e-05 0.00243086 0)
(-0.000146165 0.00205197 0)
(-0.000295685 0.00177224 0)
(-0.000501449 0.00157792 0)
(-0.000617915 0.00158441 0)
(-0.000419471 0.00133126 0)
(-4.70996e-05 0.000423124 0)
(-1.73298e-06 -0.000453576 0)
(-1.85242e-05 -0.00187747 0)
(-2.24752e-05 -0.00323887 0)
(-1.42699e-05 -0.00407215 0)
(-1.26648e-05 -0.00421886 0)
(-3.50855e-05 -0.00369018 0)
(-6.27217e-05 -0.00260414 0)
(-5.46702e-05 -0.00123939 0)
(-8.06203e-05 0.000208167 0)
(-8.69136e-05 0.00151438 0)
(-4.27621e-05 0.0025427 0)
(6.72619e-05 0.00302519 0)
(0.00013192 0.00294276 0)
(7.89604e-05 0.00258959 0)
(-4.81365e-05 0.00224204 0)
(-0.000192695 0.00195918 0)
(-0.000335201 0.00173405 0)
(-0.000386869 0.00154399 0)
(-0.000266162 0.0010922 0)
(-4.55574e-05 0.00023347 0)
)
;

boundaryField
{
    top
    {
        type            pressureInletOutletVelocity;
        value           nonuniform List<vector> 
20
(
(0 -0.000453576 0)
(0 -0.00187747 0)
(0 -0.00323887 0)
(0 -0.00407215 0)
(0 -0.00421886 0)
(0 -0.00369018 0)
(0 -0.00260414 0)
(0 -0.00123939 0)
(-8.06203e-05 0.000208167 0)
(-8.69136e-05 0.00151438 0)
(-4.27621e-05 0.0025427 0)
(6.72619e-05 0.00302519 0)
(0.00013192 0.00294276 0)
(7.89604e-05 0.00258959 0)
(-4.81365e-05 0.00224204 0)
(-0.000192695 0.00195918 0)
(-0.000335201 0.00173405 0)
(-0.000386869 0.00154399 0)
(-0.000266162 0.0010922 0)
(-4.55574e-05 0.00023347 0)
)
;
    }
    left
    {
        type            noSlip;
    }
    right
    {
        type            noSlip;
    }
    bottom
    {
        type            noSlip;
    }
    front
    {
        type            empty;
    }
    back
    {
        type            empty;
    }
    frontAndBack
    {
        type            empty;
    }
}


// ************************************************************************* //
