# Residuals   
# Time        	p_rgh         
0             	N/A
1.19904e-06   	1.000000e+00
2.63616e-06   	7.928305e-03
4.35873e-06   	5.278113e-03
6.42437e-06   	4.868124e-03
8.90212e-06   	4.742848e-03
1.18695e-05   	5.793461e-03
1.54239e-05   	6.381830e-03
1.96861e-05   	6.526801e-03
2.47919e-05   	6.651748e-03
3.0887e-05    	6.611119e-03
3.81736e-05   	7.170572e-03
4.69174e-05   	8.308710e-03
5.73909e-05   	8.891881e-03
6.97936e-05   	9.175804e-03
8.41045e-05   	9.163862e-03
0.000100173   	8.965352e-03
0.000118169   	9.119580e-03
0.000137766   	9.070256e-03
0.000157818   	8.227551e-03
0.000178359   	7.706542e-03
0.0001989     	6.890649e-03
0.000219441   	6.445938e-03
0.000240537   	6.108531e-03
0.000261633   	5.905864e-03
0.00028335    	5.607822e-03
0.000305066   	5.361716e-03
0.000327484   	5.113051e-03
0.000349901   	4.848265e-03
0.000372318   	4.624219e-03
0.000395566   	4.697475e-03
0.000418813   	4.447513e-03
0.00044206    	4.348414e-03
0.000465308   	4.255468e-03
0.000489612   	4.330270e-03
0.000513916   	4.220424e-03
0.000538221   	4.109574e-03
0.000562525   	4.009170e-03
0.000586829   	3.905190e-03
0.000611133   	3.804233e-03
0.000635437   	3.719847e-03
0.000661477   	3.920441e-03
0.000687518   	3.853191e-03
0.000713558   	3.791014e-03
0.000739598   	3.728703e-03
0.000765638   	3.672222e-03
0.000791678   	3.602867e-03
0.000817719   	3.544553e-03
0.000843759   	3.458216e-03
0.000869799   	3.435603e-03
0.000895839   	3.357574e-03
0.000921879   	3.349682e-03
0.00094792    	3.279263e-03
0.00097396    	3.286223e-03
0.001         	3.230990e-03
0.00102857    	3.531479e-03
0.00105714    	3.551828e-03
0.00108571    	3.632399e-03
0.00111429    	3.837249e-03
0.00114381    	4.272428e-03
0.00117333    	5.073157e-03
0.00120286    	6.409241e-03
0.00123238    	8.855442e-03
0.0012619     	1.262983e-02
0.00129143    	1.935209e-02
0.00132095    	2.987918e-02
0.00135048    	4.770307e-02
0.00138       	7.666139e-02
0.00140818    	1.194318e-01
0.00143777    	1.865189e-01
0.00146455    	2.720977e-01
0.00149273    	3.687411e-01
0.00151809    	4.575082e-01
0.00153904    	4.645481e-01
0.00156209    	4.021972e-01
0.00158785    	3.809617e-01
0.00161533    	4.400073e-01
0.00163557    	4.523579e-01
0.00165835    	3.803972e-01
0.00168275    	3.260457e-01
0.00170919    	3.458098e-01
0.00173827    	4.270459e-01
0.00176008    	4.742256e-01
0.00178407    	4.531781e-01
0.00181106    	4.553439e-01
0.00183468    	4.865628e-01
0.0018583     	4.807327e-01
0.00188192    	4.552411e-01
0.00190553    	4.289513e-01
0.00192915    	4.037246e-01
0.00195277    	3.786273e-01
0.00197638    	3.549694e-01
0.002         	3.327338e-01
0.00202632    	3.359212e-01
0.00205582    	4.045625e-01
0.00208003    	4.713761e-01
0.00210194    	4.596040e-01
0.00212621    	4.060131e-01
0.00215351    	4.040163e-01
0.00217841    	4.366304e-01
0.00220061    	4.226388e-01
0.00222484    	3.715158e-01
0.00225157    	3.544020e-01
0.0022783     	3.843601e-01
0.00230158    	3.917645e-01
0.00232745    	3.735296e-01
0.00235435    	3.785106e-01
0.00237826    	3.838595e-01
0.00240417    	3.668259e-01
0.00243125    	3.691891e-01
0.00245598    	3.736994e-01
0.00248188    	3.624723e-01
0.00251067    	3.743879e-01
0.00253397    	3.783633e-01
0.00255986    	3.445798e-01
0.0025892     	3.417579e-01
0.00261855    	3.964601e-01
0.00264098    	4.042438e-01
0.00266663    	3.441019e-01
0.00269441    	3.066421e-01
0.00272497    	3.418131e-01
0.00275553    	4.214193e-01
0.00277997    	4.596467e-01
0.00280748    	4.504867e-01
0.00283498    	4.482847e-01
0.00286248    	4.641764e-01
0.00288999    	4.787227e-01
0.00291749    	4.912684e-01
0.00294499    	5.030427e-01
0.0029725     	5.139606e-01
0.003         	5.244304e-01
0.00302632    	5.228056e-01
0.00305495    	5.234347e-01
0.00308275    	5.401067e-01
0.00310896    	5.444973e-01
0.0031377     	5.440277e-01
0.00316465    	5.519804e-01
0.00319249    	5.610331e-01
0.00321941    	5.629541e-01
0.00324832    	5.778288e-01
0.00327424    	5.859892e-01
0.00330215    	5.824677e-01
0.00332899    	5.790069e-01
0.0033548     	5.618530e-01
0.00338061    	5.169435e-01
0.00340642    	4.638088e-01
0.00343223    	4.158306e-01
0.00345803    	3.732109e-01
0.00348384    	3.355403e-01
0.00350965    	3.016965e-01
0.00353689    	2.830483e-01
0.00356262    	2.730520e-01
0.00358835    	2.538752e-01
0.00361579    	2.403377e-01
0.0036414     	2.351866e-01
0.00366702    	2.189018e-01
0.00369477    	2.080711e-01
0.0037202     	2.051207e-01
0.00374818    	2.037813e-01
0.00377336    	1.998430e-01
0.00379855    	1.804440e-01
0.00382373    	1.521785e-01
0.00384891    	1.281820e-01
0.00387409    	1.077367e-01
0.00389927    	9.027867e-02
0.00392445    	7.551903e-02
0.00394964    	6.304987e-02
0.00397482    	5.259816e-02
0.004         	4.385874e-02
0.00402857    	4.051668e-02
0.00405991    	4.832381e-02
0.00409473    	7.447640e-02
0.00412825    	1.252971e-01
0.00415731    	1.822440e-01
0.0041845     	2.164844e-01
0.00421168    	2.279867e-01
0.00423886    	2.328386e-01
0.00426605    	2.375675e-01
0.00429323    	2.413997e-01
0.00432041    	2.446687e-01
0.0043476     	2.468581e-01
0.00437478    	2.484469e-01
0.00440196    	2.491603e-01
0.00442915    	2.491837e-01
0.00445633    	2.481403e-01
0.00448351    	2.464200e-01
0.0045107     	2.436571e-01
0.00453788    	2.402636e-01
0.00456506    	2.359505e-01
0.00459225    	2.311090e-01
0.00461943    	2.254958e-01
0.00464662    	2.194537e-01
0.00467606    	2.266285e-01
0.00470306    	2.391798e-01
0.00473005    	2.367025e-01
0.00475705    	2.234641e-01
0.00478404    	2.103651e-01
0.00481104    	1.974950e-01
0.00483803    	1.848355e-01
0.00486503    	1.723582e-01
0.00489202    	1.604505e-01
0.00491902    	1.488744e-01
0.00494601    	1.379091e-01
0.00497301    	1.274594e-01
0.005         	1.175528e-01
0.0050303     	1.189323e-01
0.00506374    	1.509861e-01
0.00509394    	2.030970e-01
0.00512317    	2.472350e-01
0.00515057    	2.661881e-01
0.00517889    	2.695109e-01
0.00520626    	2.669877e-01
0.0052346     	2.652046e-01
0.00526295    	2.689632e-01
0.0052913     	2.771685e-01
0.00531856    	2.764099e-01
0.00534695    	2.707780e-01
0.00537534    	2.718236e-01
0.00540374    	2.783605e-01
0.00543084    	2.743378e-01
0.0054593     	2.646840e-01
0.00548776    	2.631525e-01
0.00551621    	2.683284e-01
0.00554467    	2.727789e-01
0.00557313    	2.767404e-01
0.00560159    	2.799830e-01
0.00563005    	2.827673e-01
0.0056585     	2.847721e-01
0.00568696    	2.862964e-01
0.00571542    	2.869760e-01
0.00574388    	2.871835e-01
0.00577234    	2.865029e-01
0.00580079    	2.853816e-01
0.00582925    	2.833450e-01
0.00585771    	2.809217e-01
0.00588617    	2.775936e-01
0.00591463    	2.739436e-01
0.00594308    	2.694424e-01
0.00597154    	2.646853e-01
0.006         	2.591853e-01
0.0060303     	2.659834e-01
0.00605882    	2.790541e-01
0.00608734    	2.817390e-01
0.00611586    	2.753475e-01
0.00614534    	2.755645e-01
0.00617382    	2.783447e-01
0.00620333    	2.821287e-01
0.00623178    	2.838595e-01
0.00626024    	2.786564e-01
0.00628869    	2.674807e-01
0.00631833    	2.647077e-01
0.00634673    	2.651465e-01
0.00637642    	2.671004e-01
0.00640477    	2.665637e-01
0.00643453    	2.676190e-01
0.0064628     	2.661102e-01
0.00649265    	2.663300e-01
0.00652083    	2.638503e-01
0.00655078    	2.632903e-01
0.00657886    	2.598016e-01
0.00660894    	2.585608e-01
0.00663687    	2.540626e-01
0.00666713    	2.521983e-01
0.00669487    	2.467107e-01
0.00672538    	2.442874e-01
0.00675285    	2.377569e-01
0.00678031    	2.144060e-01
0.00680777    	1.802933e-01
0.00683523    	1.511326e-01
0.00686269    	1.262909e-01
0.00689015    	1.054959e-01
0.00691762    	8.779756e-02
0.00694508    	7.300254e-02
0.00697254    	6.081719e-02
0.007         	5.054886e-02
0.00703125    	4.696074e-02
0.00706585    	5.657759e-02
0.00710178    	8.446909e-02
0.00713632    	1.288255e-01
0.00716717    	1.728677e-01
0.00719802    	2.036221e-01
0.00722666    	2.170509e-01
0.0072564     	2.188752e-01
0.007285      	2.156892e-01
0.00731479    	2.135523e-01
0.00734334    	2.101093e-01
0.00737319    	2.076781e-01
0.00740168    	2.038510e-01
0.0074316     	2.011275e-01
0.00746002    	1.969704e-01
0.00749002    	1.940626e-01
0.00751835    	1.897040e-01
0.00754845    	1.868502e-01
0.00757667    	1.822802e-01
0.00760691    	1.793062e-01
0.00763499    	1.744375e-01
0.00766541    	1.713778e-01
0.00769582    	1.781173e-01
0.00772348    	1.787812e-01
0.0077542     	1.732932e-01
0.00778493    	1.815385e-01
0.00781181    	1.806274e-01
0.0078387     	1.520665e-01
0.00786558    	1.166913e-01
0.00789246    	8.961341e-02
0.00791935    	6.875025e-02
0.00794623    	5.297218e-02
0.00797312    	4.063674e-02
0.008         	3.128569e-02
0.0080303     	2.651508e-02
0.00806374    	2.894413e-02
0.00810119    	4.202554e-02
0.00813864    	6.957078e-02
0.0081731     	1.099840e-01
0.0082049     	1.491265e-01
0.00823435    	1.713994e-01
0.0082638     	1.761843e-01
0.00829324    	1.750223e-01
0.00832269    	1.741294e-01
0.00835214    	1.729801e-01
0.00838159    	1.718707e-01
0.00841104    	1.704049e-01
0.00844049    	1.690361e-01
0.00846993    	1.673144e-01
0.00849938    	1.657075e-01
0.00852883    	1.637613e-01
0.00855828    	1.619283e-01
0.00858773    	1.597948e-01
0.00861717    	1.577323e-01
0.00864662    	1.554469e-01
0.00867607    	1.531861e-01
0.00870552    	1.507669e-01
0.00873497    	1.483344e-01
0.00876441    	1.458250e-01
0.00879386    	1.432781e-01
0.00882331    	1.406740e-01
0.00885276    	1.380121e-01
0.00888221    	1.353025e-01
0.00891166    	1.325617e-01
0.0089411     	1.297621e-01
0.00897055    	1.269746e-01
0.009         	1.241143e-01
0.00903226    	1.307685e-01
0.00906452    	1.529880e-01
0.00909469    	1.752143e-01
0.0091239     	1.816922e-01
0.0091531     	1.761765e-01
0.00918335    	1.726366e-01
0.00921359    	1.766221e-01
0.00924272    	1.782393e-01
0.00927301    	1.771881e-01
0.00930209    	1.751491e-01
0.00933243    	1.740661e-01
0.00936146    	1.717778e-01
0.00939187    	1.705335e-01
0.00942227    	1.745189e-01
0.00945116    	1.756893e-01
0.00948165    	1.732417e-01
0.00951214    	1.775103e-01
0.00954084    	1.781499e-01
0.00957145    	1.746274e-01
0.00960002    	1.696719e-01
0.00963079    	1.664099e-01
0.00966155    	1.717977e-01
0.00968976    	1.719918e-01
0.00972078    	1.665937e-01
0.00975181    	1.731660e-01
0.00977938    	1.721716e-01
0.00980696    	1.475375e-01
0.00983454    	1.166873e-01
0.00986211    	9.252557e-02
0.00988969    	7.321355e-02
0.00991727    	5.805878e-02
0.00994485    	4.590202e-02
0.00997242    	3.632226e-02
0.01          	2.879670e-02
