/*--------------------------------*- C++ -*----------------------------------*\
  =========                 |
  \\      /  F ield         | OpenFOAM: The Open Source CFD Toolbox
   \\    /   O peration     | Website:  https://openfoam.org
    \\  /    A nd           | Version:  10
     \\/     M anipulation  |
\*---------------------------------------------------------------------------*/
FoamFile
{
    format      ascii;
    class       volScalarField;
    location    "0.02";
    object      alpha.water;
}
// * * * * * * * * * * * * * * * * * * * * * * * * * * * * * * * * * * * * * //

dimensions      [0 0 0 0 0 0 0];

internalField   nonuniform List<scalar> 
800
(
0.999997
0.999997
0.999997
0.999997
0.999997
0.999997
0.999997
0.999997
0.999997
0.999997
0.999997
0.999997
0.999997
0.999997
0.999997
0.999997
0.999997
0.999996
0.999996
0.999998
0.999997
0.999996
0.999996
0.999996
0.999996
0.999996
0.999996
0.999996
0.999996
0.999996
0.999996
0.999996
0.999996
0.999996
0.999996
0.999997
0.999996
0.999996
0.999996
0.999998
0.999997
0.999996
0.999996
0.999996
0.999996
0.999996
0.999996
0.999996
0.999996
0.999996
0.999996
0.999996
0.999996
0.999996
0.999997
0.999996
0.999996
0.999996
0.999996
0.999998
0.999997
0.999996
0.999996
0.999996
0.999996
0.999996
0.999996
0.999996
0.999996
0.999996
0.999996
0.999996
0.999996
0.999996
0.999997
0.999996
0.999996
0.999996
0.999996
0.999998
0.999997
0.999996
0.999996
0.999996
0.999996
0.999996
0.999996
0.999996
0.999996
0.999996
0.999996
0.999996
0.999996
0.999996
0.999997
0.999996
0.999996
0.999996
0.999996
0.999998
0.999997
0.999997
0.999996
0.999996
0.999996
0.999997
0.999996
0.999996
0.999996
0.999996
0.999996
0.999996
0.999996
0.999997
0.999997
0.999996
0.999996
0.999996
0.999997
0.999998
0.999997
0.999997
0.999996
0.999996
0.999996
0.999997
0.999996
0.999996
0.999996
0.999996
0.999996
0.999996
0.999996
0.999997
0.999997
0.999997
0.999996
0.999996
0.999997
0.999998
0.999997
0.999997
0.999996
0.999996
0.999996
0.999997
0.999996
0.999996
0.999996
0.999996
0.999996
0.999996
0.999996
0.999997
0.999997
0.999997
0.999996
0.999996
0.999997
0.999998
0.999997
0.999996
0.999996
0.999996
0.999997
0.999997
0.999996
0.999996
0.999996
0.999996
0.999996
0.999996
0.999996
0.999996
0.999997
0.999997
0.999996
0.999996
0.999997
0.999999
0.999997
0.999997
0.999997
0.999997
0.999997
0.999997
0.999997
0.999996
0.999996
0.999996
0.999996
0.999996
0.999997
0.999997
0.999997
0.999997
0.999997
0.999997
0.999997
0.999999
0.999997
0.999997
0.999997
0.999997
0.999997
0.999997
0.999997
0.999997
0.999997
0.999997
0.999997
0.999997
0.999997
0.999997
0.999997
0.999997
0.999997
0.999997
0.999997
0.999999
0.999998
0.999997
0.999997
0.999998
0.999997
0.999997
0.999997
0.999997
0.999997
0.999997
0.999997
0.999997
0.999997
0.999997
0.999997
0.999998
0.999998
0.999997
0.999997
0.999999
0.999998
0.999998
0.999998
0.999998
0.999997
0.999997
0.999998
0.999998
0.999997
0.999997
0.999997
0.999998
0.999998
0.999998
0.999997
0.999998
0.999998
0.999998
0.999998
0.999999
0.999998
0.999998
0.999998
0.999998
0.999998
0.999997
0.999998
0.999998
0.999998
0.999998
0.999998
0.999998
0.999998
0.999998
0.999998
0.999998
0.999998
0.999998
0.999998
0.999999
0.999998
0.999998
0.999998
0.999998
0.999998
0.999998
0.999998
0.999998
0.999998
0.999998
0.999998
0.999998
0.999998
0.999998
0.999998
0.999998
0.999998
0.999998
0.999998
0.999999
0.999998
0.999998
0.999998
0.999998
0.999998
0.999998
0.999998
0.999998
0.999998
0.999998
0.999998
0.999998
0.999998
0.999998
0.999998
0.999998
0.999998
0.999998
0.999998
0.999999
0.999999
0.999999
0.999999
0.999999
0.999999
0.999998
0.999998
0.999999
0.999999
0.999999
0.999999
0.999999
0.999999
0.999998
0.999999
0.999999
0.999999
0.999999
0.999999
0.999999
0.999999
0.999999
0.999999
0.999999
0.999999
0.999999
0.999999
0.999999
0.999999
0.999999
0.999999
0.999999
0.999999
0.999999
0.999999
0.999999
0.999999
0.999999
0.999999
0.999999
0.999999
0.999999
0.999999
0.999999
0.999999
0.999999
0.999999
0.999999
0.999999
0.999999
0.999999
0.999999
0.999999
0.999999
0.999999
0.999999
0.999999
0.999999
0.999999
1
0.999999
0.999999
0.999999
0.999999
0.999999
0.999999
0.999999
0.999999
0.999999
0.999999
0.999999
0.999999
0.999999
0.999999
0.999999
0.999999
0.999999
0.999999
0.999999
1
1
1
1
1
1
1
1
1
1
1
1
1
1
1
1
1
1
1
1
1
1
1
1
1
1
1
1
1
1
1
1
1
1
1
1
1
1
1
1
1
1
1
1
1
1
1
1
1
1
1
1
1
1
1
1
1
1
1
1
1
1
1
1
1
1
1
1
1
1
1
1
1
1
1
1
1
1
1
1
1
1
1
1
1
1
1
1
1
1
1
1
1
1
1
1
1
1
1
1
1
1
1
1
1
1
1
1
1
1
1
1
1
1
1
1
1
1
1
1
1
1
1
1
1
1
1
1
1
1
1
1
1
1
1
1
1
1
1
1
1
1
1
1
0.999998
1
0.999998
1
1
1
1
0.999999
1
0.999998
1
0.999997
1
0.999999
0.999999
1
1
0.999999
1
0.999996
0.999998
0.999999
0.999998
0.999999
1
1
1
0.999999
0.999999
0.999998
1
0.999998
0.999997
0.999998
0.999999
1
0.999999
0.869751
0.869948
0.870545
0.868281
0.878052
0.872779
0.873694
0.869957
0.874579
0.875269
0.87176
0.865895
0.870277
0.875132
0.871167
0.863976
0.865682
0.869239
0.86817
0.862376
0.132767
0.131972
0.129375
0.131512
0.137
0.135537
0.133192
0.125607
0.13473
0.131083
0.131867
0.11733
0.12936
0.129436
0.130576
0.118704
0.125361
0.130195
0.131844
0.124546
1.98041e-05
7.19878e-05
2.82973e-05
0.000107854
1.23394e-05
9.66525e-05
2.15888e-05
2.60043e-05
6.38287e-05
0.000177039
0.000195478
2.69586e-05
0.000123993
0.000101387
0.000114326
4.50461e-05
9.56098e-05
0.000122764
0.000115514
2.14615e-05
1.94625e-05
5.58666e-05
1.91613e-05
0.000104906
1.18058e-05
5.82087e-05
1.63197e-05
2.3858e-05
6.3121e-05
1.62824e-05
0.000148357
2.49081e-05
0.000190905
2.15466e-05
0.000172328
4.25196e-05
9.08082e-05
4.84994e-05
8.45672e-06
1.92014e-05
6.53811e-07
2.05369e-08
8.98798e-10
2.96382e-08
2.93524e-07
2.15493e-06
3.08826e-07
1.55019e-06
3.61915e-06
6.56092e-08
1.14375e-08
1.21536e-09
3.07566e-08
4.07204e-09
2.4379e-09
1.07332e-13
3.44582e-11
5.97833e-09
3.33648e-07
4.14763e-07
9.92704e-09
1.87178e-08
1.80941e-10
5.47817e-08
7.32456e-10
7.17391e-08
9.05423e-09
3.30828e-08
1.30045e-07
1.68359e-09
1.33744e-07
1.1501e-09
5.48634e-09
2.31466e-14
2.39089e-09
4.1692e-14
1.07332e-13
5.95793e-09
7.44708e-09
8.40076e-09
4.71629e-11
6.97702e-11
2.4889e-11
4.58191e-13
9.6481e-12
6.80807e-11
1.09806e-10
3.88679e-10
1.52876e-09
1.25538e-10
5.59737e-10
3.69664e-12
2.31466e-14
2.21029e-14
2.206e-14
2.39489e-14
7.88264e-12
7.75775e-11
4.7465e-11
5.90305e-11
8.33537e-14
5.15099e-13
1.66644e-12
4.17083e-13
3.52481e-13
2.95893e-13
5.08343e-13
2.73938e-12
1.11602e-11
3.82988e-12
1.93538e-11
7.56541e-13
9.40753e-12
2.34164e-13
2.20341e-14
3.32241e-14
1.69977e-12
5.96548e-12
1.67766e-13
9.82609e-14
1.56416e-16
2.68001e-15
1.02928e-14
2.71584e-15
9.02835e-15
1.36934e-14
1.0753e-14
1.37709e-13
1.33293e-13
2.1711e-13
5.12824e-13
3.87906e-13
3.71292e-13
6.09565e-14
2.11399e-14
1.53184e-14
3.7718e-14
7.25025e-14
3.56898e-15
1.18906e-15
4.11418e-18
1.54801e-16
1.0988e-16
2.28019e-17
1.09244e-16
4.59936e-17
2.85682e-17
7.25132e-16
3.04038e-15
8.76895e-15
8.34071e-15
7.0006e-15
3.98744e-15
5.02634e-16
1.95403e-16
9.15924e-17
2.77248e-16
4.01482e-16
1.35938e-16
1.62072e-17
9.33369e-19
9.83976e-19
1.36126e-18
1.45831e-18
1.49359e-18
1.6964e-18
1.87888e-18
3.87008e-18
3.29437e-17
2.54537e-16
2.29872e-16
1.20716e-16
4.58523e-17
2.03588e-17
1.32409e-17
1.32213e-17
1.31733e-17
1.15627e-17
2.26401e-18
2.26611e-18
)
;

boundaryField
{
    top
    {
        type            inletOutlet;
        inletValue      uniform 0;
        value           nonuniform List<scalar> 
20
(
0
9.83976e-19
1.36126e-18
1.45831e-18
1.49359e-18
1.6964e-18
1.87888e-18
3.87008e-18
3.29437e-17
2.54537e-16
2.29872e-16
0
0
0
0
0
0
0
0
0
)
;
    }
    left
    {
        type            zeroGradient;
    }
    right
    {
        type            zeroGradient;
    }
    bottom
    {
        type            zeroGradient;
    }
    front
    {
        type            empty;
    }
    back
    {
        type            empty;
    }
    frontAndBack
    {
        type            empty;
    }
}


// ************************************************************************* //
