/*--------------------------------*- C++ -*----------------------------------*\
  =========                 |
  \\      /  F ield         | OpenFOAM: The Open Source CFD Toolbox
   \\    /   O peration     | Website:  https://openfoam.org
    \\  /    A nd           | Version:  10
     \\/     M anipulation  |
\*---------------------------------------------------------------------------*/
FoamFile
{
    format      ascii;
    class       surfaceScalarField;
    location    "0.02";
    object      alphaPhi.water;
}
// * * * * * * * * * * * * * * * * * * * * * * * * * * * * * * * * * * * * * //

dimensions      [0 3 -1 0 0 0 0];

internalField   nonuniform List<scalar> 
1540
(
1.1553e-13
-1.15615e-13
5.14772e-13
-3.99342e-13
1.08159e-12
-5.66921e-13
1.64982e-12
-5.68331e-13
2.06723e-12
-4.17513e-13
2.22202e-12
-1.54886e-13
2.06001e-12
1.61908e-13
1.58766e-12
4.72247e-13
8.68689e-13
7.18869e-13
1.3961e-14
8.54627e-13
-8.39385e-13
8.53245e-13
-1.55699e-12
7.17504e-13
-2.03043e-12
4.73341e-13
-2.19787e-12
1.67344e-13
-2.04961e-12
-1.48368e-13
-1.63339e-12
-4.16311e-13
-1.06264e-12
-5.70855e-13
-5.05828e-13
-5.56914e-13
-1.0897e-13
-3.9697e-13
-1.09026e-13
4.03786e-13
-5.19501e-13
1.38526e-12
-1.38093e-12
2.64991e-12
-1.83168e-12
3.86569e-12
-1.78423e-12
4.73264e-12
-1.28457e-12
5.02113e-12
-4.43488e-13
4.61621e-12
5.66702e-13
3.53568e-12
1.55266e-12
1.91673e-12
2.33772e-12
1.7635e-15
2.76947e-12
-1.91368e-12
2.76857e-12
-3.53208e-12
2.33579e-12
-4.61849e-12
1.55965e-12
-5.02923e-12
5.77973e-13
-4.73098e-12
-4.46721e-13
-3.86466e-12
-1.28276e-12
-2.64742e-12
-1.78819e-12
-1.37622e-12
-1.82823e-12
-3.9662e-13
-1.37668e-12
-5.05704e-13
6.32643e-13
-1.15225e-12
2.03855e-12
-2.78695e-12
3.76703e-12
-3.56027e-12
5.38956e-12
-3.40687e-12
6.51733e-12
-2.41246e-12
6.85977e-12
-7.86034e-13
6.28242e-12
1.14395e-12
4.78749e-12
3.04748e-12
2.58643e-12
4.53866e-12
-4.64939e-15
5.36044e-12
-2.59581e-12
5.35962e-12
-4.79681e-12
4.53668e-12
-6.28389e-12
3.04662e-12
-6.86802e-12
1.16198e-12
-6.5265e-12
-7.88354e-13
-5.39229e-12
-2.41708e-12
-3.76461e-12
-3.41598e-12
-2.02973e-12
-3.56323e-12
-6.25097e-13
-2.78142e-12
-1.13086e-12
7.89385e-13
-1.94174e-12
2.50027e-12
-4.49794e-12
4.55777e-12
-5.61788e-12
6.46031e-12
-5.30953e-12
7.75522e-12
-3.70748e-12
8.11132e-12
-1.14225e-12
7.35757e-12
1.89757e-12
5.57979e-12
4.82514e-12
3.00337e-12
7.11496e-12
-7.99813e-15
8.37169e-12
-3.01988e-12
8.37138e-12
-5.59649e-12
7.11318e-12
-7.37106e-12
4.82107e-12
-8.10851e-12
1.89932e-12
-7.76506e-12
-1.13193e-12
-6.46476e-12
-3.71749e-12
-4.55344e-12
-5.32741e-12
-2.48675e-12
-5.63004e-12
-7.81553e-13
-4.48674e-12
-1.91247e-12
8.94663e-13
-2.8365e-12
2.79384e-12
-6.39723e-12
5.06234e-12
-7.88649e-12
7.13161e-12
-7.37891e-12
8.50061e-12
-5.07659e-12
8.80356e-12
-1.44532e-12
7.90903e-12
2.79198e-12
5.94682e-12
6.78723e-12
3.17917e-12
9.8825e-12
-9.5812e-15
1.15603e-11
-3.19724e-12
1.15589e-11
-5.96181e-12
9.87764e-12
-7.92635e-12
6.78551e-12
-8.81281e-12
2.78566e-12
-8.50937e-12
-1.43549e-12
-7.13588e-12
-5.09109e-12
-5.05766e-12
-7.40575e-12
-2.78238e-12
-7.90543e-12
-8.83246e-13
-6.386e-12
-2.79578e-12
9.35335e-13
-3.77194e-12
2.90535e-12
-8.36737e-12
5.24031e-12
-1.02216e-11
7.33174e-12
-9.47046e-12
8.65343e-12
-6.3984e-12
8.84688e-12
-1.63888e-12
7.83475e-12
3.80398e-12
5.79983e-12
8.82204e-12
3.06904e-12
1.26132e-11
-1.0509e-14
1.46398e-11
-3.08885e-12
1.46371e-11
-5.81694e-12
1.26056e-11
-7.84459e-12
8.81305e-12
-8.85581e-12
3.79676e-12
-8.6523e-12
-1.63911e-12
-7.32434e-12
-6.41915e-12
-5.23672e-12
-9.49348e-12
-2.90016e-12
-1.02421e-11
-9.3202e-13
-8.35426e-12
-3.72786e-12
9.14574e-13
-4.68663e-12
2.80682e-12
-1.02598e-11
5.01561e-12
-1.24305e-11
6.94972e-12
-1.14047e-11
8.09413e-12
-7.54292e-12
8.1217e-12
-1.66656e-12
7.05148e-12
4.87407e-12
5.12479e-12
1.07486e-11
2.67338e-12
1.50645e-11
-1.15688e-14
1.73246e-11
-2.69589e-12
1.73214e-11
-5.14321e-12
1.50528e-11
-7.06122e-12
1.07309e-11
-8.12854e-12
4.86395e-12
-8.08002e-12
-1.68774e-12
-6.94806e-12
-7.55123e-12
-5.01478e-12
-1.14269e-11
-2.81792e-12
-1.24391e-11
-9.14785e-13
-1.02575e-11
-4.6427e-12
8.10216e-13
-5.49695e-12
2.46027e-12
-1.19099e-11
4.33085e-12
-1.43012e-11
5.91212e-12
-1.29861e-11
6.78095e-12
-8.41186e-12
6.67316e-12
-1.55888e-12
5.66902e-12
5.87809e-12
4.03696e-12
1.23806e-11
2.0752e-12
1.70261e-11
-1.35957e-14
1.94133e-11
-2.10133e-12
1.9409e-11
-4.0613e-12
1.70127e-11
-5.68682e-12
1.23563e-11
-6.68062e-12
5.85763e-12
-6.78403e-12
-1.58444e-12
-5.90385e-12
-8.43151e-12
-4.31602e-12
-1.30148e-11
-2.43691e-12
-1.43183e-11
-7.99316e-13
-1.18952e-11
-5.44207e-12
6.20392e-13
-6.11744e-12
1.84973e-12
-1.31393e-11
3.21397e-12
-1.56655e-11
4.33625e-12
-1.41084e-11
4.89468e-12
-8.97041e-12
4.72493e-12
-1.38925e-12
3.93034e-12
6.67258e-12
2.74161e-12
1.35692e-11
1.38613e-12
1.83815e-11
-1.39169e-14
2.08132e-11
-1.41341e-12
2.08083e-11
-2.76995e-12
1.83691e-11
-3.95368e-12
1.354e-11
-4.73051e-12
6.63436e-12
-4.89467e-12
-1.42039e-12
-4.32305e-12
-9.00324e-12
-3.19633e-12
-1.41416e-11
-1.81709e-12
-1.56976e-11
-6.01732e-13
-1.31107e-11
-6.04386e-12
3.58596e-13
-6.47613e-12
1.01763e-12
-1.37985e-11
1.7432e-12
-1.63912e-11
2.3496e-12
-1.47149e-11
2.6418e-12
-9.26272e-12
2.53675e-12
-1.28432e-12
2.06939e-12
7.13983e-12
1.4145e-12
1.4224e-11
7.01365e-13
1.90945e-11
-1.35e-14
2.1528e-11
-7.25975e-13
2.15208e-11
-1.43217e-12
1.90753e-11
-2.08118e-12
1.41889e-11
-2.53867e-12
7.09174e-12
-2.63197e-12
-1.32719e-12
-2.33354e-12
-9.30178e-12
-1.72506e-12
-1.47502e-11
-9.98263e-13
-1.64245e-11
-3.42632e-13
-1.37664e-11
-6.38655e-12
4.54441e-14
-6.52168e-12
8.60475e-14
-1.38392e-11
1.20887e-13
-1.64261e-11
1.69309e-13
-1.47635e-11
2.29572e-13
-9.32311e-12
2.64457e-13
-1.31931e-12
2.2628e-13
7.1779e-12
1.48578e-13
1.43016e-11
6.45576e-14
1.91785e-11
-1.46004e-14
2.16071e-11
-9.09103e-14
2.1597e-11
-1.65993e-13
1.91502e-11
-2.32022e-13
1.42548e-11
-2.59509e-13
7.11912e-12
-2.17404e-13
-1.3694e-12
-1.51867e-13
-9.36743e-12
-1.01603e-13
-1.48006e-11
-6.37427e-14
-1.64625e-11
-2.76941e-14
-1.38026e-11
-6.4143e-12
-2.55524e-13
-6.26625e-12
-8.19109e-13
-1.32757e-11
-1.47018e-12
-1.57752e-11
-1.97728e-12
-1.42565e-11
-2.14991e-12
-9.1506e-12
-1.96584e-12
-1.50349e-12
-1.56748e-12
6.77943e-12
-1.07402e-12
1.3808e-11
-5.47938e-13
1.86523e-11
-1.63794e-14
2.10754e-11
5.18062e-13
2.10624e-11
1.05371e-12
1.86145e-11
1.56157e-12
1.37469e-11
1.97389e-12
6.7067e-12
2.1663e-12
-1.56192e-12
1.9931e-12
-9.19434e-12
1.48999e-12
-1.42976e-11
8.45502e-13
-1.58181e-11
2.75698e-13
-1.32329e-11
-6.13865e-12
-5.11562e-13
-5.75479e-12
-1.59926e-12
-1.21882e-11
-2.85132e-12
-1.45232e-11
-3.87334e-12
-1.32346e-11
-4.31912e-12
-8.70494e-12
-4.07237e-12
-1.75032e-12
-3.30237e-12
6.00931e-12
-2.27066e-12
1.27762e-11
-1.15247e-12
1.7534e-11
-1.83381e-14
1.99412e-11
1.11932e-12
1.99247e-11
2.24881e-12
1.74849e-11
3.29691e-12
1.26987e-11
4.08085e-12
5.92265e-12
4.33452e-12
-1.81569e-12
3.891e-12
-8.75093e-12
2.87346e-12
-1.32802e-11
1.62488e-12
-1.45696e-11
5.32812e-13
-1.21409e-11
-5.60589e-12
-6.93056e-13
-5.06184e-12
-2.16099e-12
-1.07203e-11
-3.8645e-12
-1.28198e-11
-5.31454e-12
-1.17847e-11
-6.07409e-12
-7.94548e-12
-5.90182e-12
-1.92269e-12
-4.90138e-12
5.00876e-12
-3.42359e-12
1.12983e-11
-1.75127e-12
1.58615e-11
-2.09411e-14
1.82107e-11
1.71333e-12
1.81903e-11
3.39786e-12
1.58003e-11
4.89227e-12
1.12041e-11
5.90451e-12
4.91031e-12
6.08847e-12
-1.99974e-12
5.33772e-12
-8.00028e-12
3.89087e-12
-1.18334e-11
2.18806e-12
-1.28669e-11
7.15863e-13
-1.06689e-11
-4.89008e-12
-7.81924e-13
-4.28001e-12
-2.4486e-12
-9.05377e-12
-4.40967e-12
-1.08589e-11
-6.14929e-12
-1.00452e-11
-7.19031e-12
-6.90456e-12
-7.19663e-12
-1.91647e-12
-6.16483e-12
3.97686e-12
-4.41321e-12
9.54659e-12
-2.29205e-12
1.37403e-11
-2.52056e-14
1.59438e-11
2.24604e-12
1.59189e-11
4.37883e-12
1.36674e-11
6.14341e-12
9.43945e-12
7.18646e-12
3.86716e-12
7.19672e-12
-2.01009e-12
6.17001e-12
-6.97367e-12
4.43947e-12
-1.0103e-11
2.47933e-12
-1.09069e-11
8.07769e-13
-8.99741e-12
-4.08236e-12
-7.78216e-13
-3.50189e-12
-2.46081e-12
-7.37129e-12
-4.46883e-12
-8.85096e-12
-6.30508e-12
-8.20906e-12
-7.50748e-12
-5.70226e-12
-7.7132e-12
-1.71085e-12
-6.8183e-12
3.08188e-12
-5.01948e-12
7.74766e-12
-2.65577e-12
1.13764e-11
-3.24842e-14
1.33204e-11
2.59519e-12
1.32912e-11
4.96918e-12
1.12933e-11
6.77888e-12
7.62965e-12
7.68918e-12
2.95676e-12
7.50365e-12
-1.82466e-12
6.32199e-12
-5.79211e-12
4.50116e-12
-8.28227e-12
2.49615e-12
-8.90198e-12
8.0819e-13
-7.30955e-12
-3.27422e-12
-7.00707e-13
-2.80127e-12
-2.25031e-12
-5.82179e-12
-4.12331e-12
-6.97807e-12
-5.86874e-12
-6.46373e-12
-7.07772e-12
-4.49339e-12
-7.41242e-12
-1.37625e-12
-6.71395e-12
2.3833e-12
-5.06299e-12
6.0966e-12
-2.72713e-12
9.04048e-12
-4.50237e-14
1.06382e-11
2.6411e-12
1.06049e-11
4.98704e-12
8.94723e-12
6.65247e-12
5.96413e-12
7.37289e-12
2.23625e-12
7.06432e-12
-1.51618e-12
5.88343e-12
-4.61132e-12
4.15879e-12
-6.55774e-12
2.29279e-12
-7.03608e-12
7.36622e-13
-5.75348e-12
-2.53764e-12
-5.77366e-13
-2.224e-12
-1.89956e-12
-4.4997e-12
-3.51813e-12
-5.3596e-12
-5.0436e-12
-4.93837e-12
-6.13199e-12
-3.4051e-12
-6.49673e-12
-1.01161e-12
-5.97379e-12
1.86027e-12
-4.57885e-12
4.70156e-12
-2.50423e-12
6.96576e-12
-6.44893e-14
8.19837e-12
2.37994e-12
8.16042e-12
4.46838e-12
6.8587e-12
5.88568e-12
4.54673e-12
6.4396e-12
1.68223e-12
6.11037e-12
-1.18704e-12
5.0582e-12
-3.55925e-12
3.56007e-12
-5.05971e-12
1.95218e-12
-5.42829e-12
6.21317e-13
-4.42272e-12
-1.91638e-12
-4.34648e-13
-1.78944e-12
-1.48924e-12
-3.44521e-12
-2.80121e-12
-4.04775e-12
-4.04835e-12
-3.69132e-12
-4.95055e-12
-2.503e-12
-5.27992e-12
-6.82347e-13
-4.89558e-12
1.47583e-12
-3.79046e-12
3.59634e-12
-2.10274e-12
5.27794e-12
-9.05384e-14
6.18607e-12
1.92859e-12
6.14119e-12
3.63816e-12
5.14902e-12
4.77675e-12
3.40805e-12
5.20527e-12
1.25362e-12
4.92342e-12
-9.0529e-13
4.06703e-12
-2.70295e-12
2.85431e-12
-3.84709e-12
1.55668e-12
-4.13076e-12
4.89859e-13
-3.356e-12
-1.42657e-12
-2.90719e-13
-1.49881e-12
-1.07719e-12
-2.65883e-12
-2.08e-12
-3.04504e-12
-3.04438e-12
-2.72705e-12
-3.74815e-12
-1.79934e-12
-4.02055e-12
-4.10045e-13
-3.75043e-12
1.20561e-12
-2.92863e-12
2.77444e-12
-1.65428e-12
4.00348e-12
-1.21493e-13
4.65319e-12
1.42147e-12
4.59813e-12
2.73015e-12
3.84024e-12
3.59975e-12
2.53834e-12
3.93196e-12
9.21317e-13
3.7215e-12
-6.94931e-13
3.07479e-12
-2.05634e-12
2.15191e-12
-2.92431e-12
1.16592e-12
-3.14488e-12
3.6153e-13
-2.55172e-12
-1.06509e-12
-1.54541e-13
-1.34436e-12
-6.93221e-13
-2.12026e-12
-1.41015e-12
-2.32821e-12
-2.11668e-12
-2.02063e-12
-2.63695e-12
-1.27918e-12
-2.85734e-12
-1.89755e-13
-2.68758e-12
1.03574e-12
-2.12485e-12
2.21162e-12
-1.2365e-12
3.11502e-12
-1.55285e-13
3.57187e-12
9.39339e-13
3.5034e-12
1.88134e-12
2.89814e-12
2.50869e-12
1.91089e-12
2.76506e-12
6.64838e-13
2.62361e-12
-5.53581e-13
2.17271e-12
-1.60554e-12
1.51335e-12
-2.26506e-12
8.13094e-13
-2.44474e-12
2.46967e-13
-1.9857e-12
-8.18183e-13
-3.26255e-14
-1.31183e-12
-3.44494e-13
-1.8085e-12
-8.03233e-13
-1.86958e-12
-1.28749e-12
-1.53648e-12
-1.64825e-12
-9.18523e-13
-1.8258e-12
-1.23146e-14
-1.74932e-12
9.59153e-13
-1.4176e-12
1.8798e-12
-8.74081e-13
2.57139e-12
-1.90014e-13
2.88769e-12
5.07486e-13
2.80579e-12
1.14064e-12
2.26487e-12
1.55233e-12
1.4991e-12
1.7535e-12
4.63566e-13
1.66694e-12
-4.67128e-13
1.39451e-12
-1.33322e-12
9.59451e-13
-1.83011e-12
5.10983e-13
-1.99638e-12
1.50199e-13
-1.62503e-12
-6.68043e-13
9.21045e-14
-1.40404e-12
-2.52324e-14
-1.69127e-12
-2.46583e-13
-1.64834e-12
-5.38112e-13
-1.24506e-12
-7.51006e-13
-7.05741e-13
-9.17678e-13
1.54245e-13
-9.17074e-13
9.58438e-13
-7.918e-13
1.75441e-12
-5.66153e-13
2.34563e-12
-2.26452e-13
2.54788e-12
1.27919e-13
2.45131e-12
5.08964e-13
1.88371e-12
7.16417e-13
1.29153e-12
8.96304e-13
2.83568e-13
8.41205e-13
-4.1214e-13
7.47913e-13
-1.24004e-12
4.88445e-13
-1.57076e-12
2.56408e-13
-1.76446e-12
7.36181e-14
-1.44236e-12
-5.94486e-13
2.03618e-13
-1.60776e-12
2.83057e-13
-1.77082e-12
2.93869e-13
-1.65927e-12
1.59272e-13
-1.11058e-12
5.91977e-14
-6.05784e-13
-6.58079e-14
2.79134e-13
-1.3902e-13
1.03153e-12
-2.02187e-13
1.81746e-12
-3.10038e-13
2.45337e-12
-2.85033e-13
2.52276e-12
-2.5782e-13
2.42398e-12
-7.44158e-14
1.70019e-12
-1.57057e-14
1.2327e-12
1.50138e-13
1.17607e-13
1.67841e-13
-4.2996e-13
1.95021e-13
-1.26734e-12
9.88747e-14
-1.47473e-12
4.01179e-14
-1.70583e-12
9.36207e-15
-1.41173e-12
-5.85188e-13
3.12767e-13
-1.92063e-12
6.09616e-13
-2.06779e-12
9.14797e-13
-1.96457e-12
9.30182e-13
-1.12609e-12
8.02066e-13
-4.77789e-13
7.09045e-13
3.72034e-13
6.0501e-13
1.13545e-12
3.67305e-13
2.05504e-12
-9.32434e-14
2.91379e-12
-3.70184e-13
2.79957e-12
-6.28696e-13
2.68237e-12
-5.04178e-13
1.57555e-12
-5.70609e-13
1.29901e-12
-5.41193e-13
8.80678e-14
-5.64539e-13
-4.06737e-13
-2.17257e-13
-1.61474e-12
-2.09541e-13
-1.48258e-12
-1.25968e-13
-1.78953e-12
-5.29268e-14
-1.48491e-12
-6.3818e-13
2.91872e-13
-2.21261e-12
7.35686e-13
-2.51172e-12
1.55326e-12
-2.78227e-12
1.79217e-12
-1.36513e-12
1.60708e-12
-2.92815e-13
1.55746e-12
4.21529e-13
1.6065e-12
1.08628e-12
1.18659e-12
2.47483e-12
1.99839e-13
3.90042e-12
-6.2825e-13
3.62754e-12
-1.25211e-12
3.3061e-12
-1.03934e-12
1.36266e-12
-1.29665e-12
1.5562e-12
-1.13757e-12
-7.11377e-14
-7.96812e-13
-7.47621e-13
-2.42313e-13
-2.16937e-12
-1.45498e-13
-1.57952e-12
-1.75287e-13
-1.75988e-12
-5.50524e-14
-1.60527e-12
-6.93295e-13
5.82848e-13
-2.79556e-12
1.05389e-12
-2.98287e-12
2.75844e-12
-4.48693e-12
3.29133e-12
-1.89813e-12
2.47738e-12
5.21023e-13
2.26429e-12
6.34498e-13
2.97573e-12
3.74736e-13
2.50572e-12
2.94472e-12
6.22081e-13
5.78394e-12
-1.42435e-12
5.67385e-12
-1.92707e-12
3.80871e-12
-1.1165e-12
5.51962e-13
-1.01574e-12
1.45533e-12
-2.04293e-12
9.55934e-13
-2.02302e-12
-7.67639e-13
-3.35289e-13
-3.85722e-12
4.40172e-14
-1.95895e-12
-5.04256e-13
-1.21172e-12
-5.29651e-13
-1.58e-12
-1.223e-12
6.57736e-13
-3.45338e-12
1.46435e-14
-2.33986e-12
3.47466e-12
-7.94704e-12
5.3964e-12
-3.81997e-12
4.12944e-12
1.78784e-12
1.35911e-12
3.40472e-12
3.95513e-12
-2.22137e-12
5.12837e-12
1.77136e-12
2.64444e-12
8.26778e-12
-4.33335e-12
1.26515e-11
-5.58696e-12
5.06222e-12
-6.48358e-13
-4.38673e-12
1.54473e-12
-7.37859e-13
-3.87643e-12
6.37701e-12
-4.68777e-12
4.36085e-14
1.43592e-12
-9.98102e-12
4.44412e-12
-4.96725e-12
-1.36799e-13
3.3691e-12
-2.86245e-12
1.14556e-12
-4.08548e-12
6.58287e-12
-1.00353e-11
1.69842e-12
2.53694e-12
3.88765e-12
-1.01376e-11
1.11746e-11
-1.11057e-11
1.55662e-11
-2.60107e-12
9.20683e-15
1.8961e-11
-1.59038e-12
-6.21314e-13
1.05372e-11
-1.03563e-11
1.29995e-11
5.80535e-12
-1.43386e-11
3.99884e-11
-1.92117e-11
9.93499e-12
2.30345e-12
-2.58983e-11
1.21058e-11
-1.05401e-11
-1.09949e-11
2.94737e-11
-1.83551e-11
7.3991e-12
2.13739e-12
-3.04637e-11
1.81861e-11
-2.10127e-11
-2.38265e-13
2.17852e-11
-1.90032e-11
1.98969e-11
-2.30856e-11
1.81539e-11
-1.54607e-11
-4.35546e-12
1.43887e-11
-1.49097e-11
1.06589e-12
5.8541e-12
-1.74697e-11
2.6849e-11
-1.34002e-11
-1.71459e-11
3.49488e-11
-3.37943e-11
9.65267e-12
1.6325e-11
-3.3624e-11
4.33719e-11
-1.25538e-11
-3.88558e-11
6.70978e-11
-5.38044e-11
1.42247e-11
1.69823e-11
-5.24201e-11
4.75455e-11
-2.25885e-11
-1.9666e-11
5.37932e-11
-4.85217e-11
2.0884e-11
7.30873e-12
-4.62698e-11
5.93822e-11
-4.01783e-11
6.86723e-12
4.10928e-11
-6.24716e-11
4.96337e-11
-4.74455e-11
3.95716e-12
-4.07384e-13
7.50491e-13
6.01667e-14
-6.23144e-12
6.83632e-14
-1.08214e-12
-2.01864e-13
4.08139e-12
-1.157e-12
-9.49243e-13
3.32745e-13
-6.62081e-12
5.82489e-14
1.37811e-12
-9.32722e-13
8.59618e-12
-1.25506e-12
-6.34562e-12
1.72707e-12
-6.78608e-12
0
2.87693e-12
-4.50477e-13
8.79545e-12
-1.33302e-13
-6.10705e-13
9.21937e-13
-4.60246e-12
2.72843e-13
2.64419e-12
-3.25189e-13
1.01647e-11
-1.17621e-12
2.98785e-12
5.28534e-13
-9.54923e-12
1.10993e-12
-1.38779e-12
-6.60818e-14
-2.02523e-15
-5.26631e-14
0
-1.42119e-16
0
8.20194e-16
-2.16255e-14
-1.42578e-13
-2.59408e-15
4.30907e-14
0
1.13901e-13
0
-5.48184e-15
-8.89764e-15
-8.03855e-13
0
2.31758e-13
0
6.54763e-14
0
-5.84457e-15
-1.12986e-14
-3.50211e-13
-2.24009e-14
2.25012e-13
0
1.52095e-13
0
1.42713e-15
-1.46013e-14
-2.08836e-13
-2.78205e-14
2.89992e-14
0
6.90897e-13
0
-1.05327e-14
-2.1009e-15
0
-3.35288e-16
8.85146e-18
1.93758e-16
0
-2.57428e-16
-1.72196e-18
-8.60915e-16
-1.5697e-16
3.28998e-15
0
8.51435e-17
0
-8.81257e-16
-7.31136e-17
-8.21579e-15
0
-1.24409e-14
4.32236e-16
-5.0579e-16
-2.38501e-16
-1.22208e-14
-4.51007e-17
-2.1292e-15
-3.14183e-18
-7.13028e-15
3.46082e-17
1.21186e-14
-3.0721e-17
-1.17814e-15
-3.85671e-17
-6.41777e-15
-8.76024e-17
4.87028e-15
-1.19706e-16
4.59559e-15
0
-6.65474e-17
1.48058e-18
0
3.04467e-18
0
4.38315e-19
0
-4.17831e-18
-3.3186e-18
-3.4778e-17
-3.2801e-18
-1.0615e-17
0
-8.42613e-18
0
-8.44215e-17
0
-1.7755e-16
0
1.18734e-16
0
-1.2068e-19
-1.99395e-18
-3.94602e-19
-3.4431e-19
-1.09277e-16
-1.70806e-18
3.00366e-17
1.2369e-19
-9.97429e-20
-2.66412e-19
2.76647e-20
-2.87971e-22
-1.38523e-19
-1.04405e-19
-5.64721e-17
0
2.79999e-17
0
0
2.3226e-21
0
1.84917e-19
0
2.65731e-21
0
0
-6.50937e-24
-1.74356e-18
-3.38459e-21
-2.64217e-19
0
-1.3245e-19
0
-2.55282e-18
0
-9.78171e-19
0
1.33253e-18
0
1.82655e-18
-2.05199e-21
-3.67128e-20
-1.22092e-21
-1.28991e-19
-2.78131e-22
-5.29391e-21
-5.18158e-24
-1.49615e-25
-8.32804e-25
-2.58358e-22
-1.54749e-24
-6.6704e-20
-2.96883e-22
-5.19908e-19
0
1.42042e-19
0
0
2.18707e-22
0
7.48977e-22
0
1.28491e-22
7.1703e-24
-5.63192e-23
-2.66372e-24
-2.62732e-21
2.67111e-25
-2.25278e-21
0
-2.00164e-21
0
-1.72733e-20
0
9.51763e-22
0
7.73599e-21
0
5.30216e-21
-3.35364e-22
1.67865e-23
-1.72613e-23
-1.87626e-25
-2.60021e-22
-7.14335e-26
-5.05446e-24
-2.58769e-25
-5.79805e-25
-8.75389e-24
-8.15258e-25
-4.86312e-22
-3.19432e-23
-2.64397e-21
0
-2.78564e-22
0
0
3.14684e-25
8.55041e-28
4.16916e-24
2.44609e-26
5.00381e-24
3.46444e-25
-8.13292e-25
6.2283e-25
-3.46242e-24
1.05843e-25
-5.4139e-24
1.60485e-25
-7.0837e-24
3.0383e-25
-2.06185e-23
2.52355e-24
9.54346e-23
0
7.41923e-23
2.62795e-24
1.94192e-22
-1.90121e-25
4.43115e-24
-6.02589e-24
-2.87282e-25
-6.8848e-24
-5.38257e-26
-2.02765e-24
-1.44717e-25
-4.49205e-25
-5.0606e-24
-4.00291e-25
-6.97982e-23
-6.73459e-25
-1.1665e-23
-7.13015e-26
-7.53699e-25
2.69514e-26
6.51526e-27
2.80835e-28
4.02237e-30
1.42015e-26
4.65147e-28
2.59102e-26
6.0133e-28
1.64834e-28
1.65123e-28
-2.39501e-26
2.43567e-27
-2.12653e-26
3.88414e-27
5.87956e-27
3.39503e-27
4.9783e-25
8.31142e-26
1.27606e-24
7.17732e-26
2.20966e-24
1.40091e-25
4.41794e-24
1.89723e-27
2.20394e-24
-1.06851e-25
4.65968e-25
-1.11192e-25
-3.87186e-26
-1.60984e-26
-7.66533e-26
-6.37134e-27
-1.86098e-25
-2.35618e-27
-6.10617e-25
-4.49115e-27
-4.86428e-26
-1.92412e-27
-3.23003e-27
2.43147e-28
3.53203e-29
3.33641e-30
9.02883e-32
2.77861e-28
1.46096e-29
1.95538e-28
7.20801e-30
4.18144e-29
7.38209e-30
1.64246e-28
2.27359e-29
1.23988e-28
2.2796e-29
2.00318e-28
4.44817e-29
7.98879e-27
2.18999e-28
2.93513e-26
1.17166e-27
6.17446e-26
4.33042e-27
5.08069e-26
1.219e-28
2.86732e-26
-2.12254e-27
4.33393e-27
-1.50647e-27
-1.62796e-28
-8.10634e-28
-2.76526e-28
-5.29308e-28
-9.56708e-28
-4.02718e-28
-2.01186e-27
-2.97805e-28
-8.13291e-28
-1.24931e-28
-2.26828e-29
-5.59388e-30
1.46037e-31
5.67842e-31
1.59586e-30
3.34022e-30
3.92072e-30
5.04882e-30
6.41019e-30
8.74014e-30
5.39933e-29
3.51129e-28
1.26701e-27
7.53848e-28
1.73817e-28
2.55113e-29
-1.09048e-30
-1.31296e-29
-2.11696e-29
-2.21317e-29
-2.83637e-30
-1.0741e-30
)
;

boundaryField
{
    top
    {
        type            calculated;
        value           nonuniform List<scalar> 
20
(
0
9.79748e-31
2.70931e-30
6.01243e-30
1.13776e-29
1.79306e-29
2.43964e-29
9.27566e-29
4.67644e-28
1.94679e-27
3.06278e-28
0
0
0
0
0
0
0
0
0
)
;
    }
    left
    {
        type            calculated;
        value           uniform 0;
    }
    right
    {
        type            calculated;
        value           uniform 0;
    }
    bottom
    {
        type            calculated;
        value           nonuniform List<scalar> 
20
(
0
0
0
0
0
0
0
0
0
0
0
0
0
0
0
0
-7.70369e-34
0
0
0
)
;
    }
    front
    {
        type            empty;
        value           nonuniform List<scalar> 0();
    }
    back
    {
        type            empty;
        value           nonuniform List<scalar> 0();
    }
    frontAndBack
    {
        type            empty;
        value           nonuniform List<scalar> 0();
    }
}


// ************************************************************************* //
