/*--------------------------------*- C++ -*----------------------------------*\
  =========                 |
  \\      /  F ield         | OpenFOAM: The Open Source CFD Toolbox
   \\    /   O peration     | Website:  https://openfoam.org
    \\  /    A nd           | Version:  10
     \\/     M anipulation  |
\*---------------------------------------------------------------------------*/
FoamFile
{
    format      ascii;
    class       volScalarField;
    location    "0.02";
    object      p;
}
// * * * * * * * * * * * * * * * * * * * * * * * * * * * * * * * * * * * * * //

dimensions      [1 -1 -2 0 0 0 0];

internalField   nonuniform List<scalar> 
800
(
14.1931
14.1947
14.1951
14.1929
14.1879
14.1807
14.1726
14.1649
14.1589
14.1557
14.1557
14.1591
14.1652
14.1729
14.1811
14.1884
14.1934
14.1956
14.1953
14.1944
13.6999
13.7021
13.7026
13.7006
13.696
13.6898
13.6828
13.6762
13.6711
13.6684
13.6684
13.6713
13.6765
13.6834
13.6903
13.6967
13.7011
13.7034
13.7029
13.7018
13.2086
13.2113
13.212
13.21
13.2056
13.1997
13.1931
13.1868
13.1821
13.1796
13.1796
13.1823
13.1871
13.1934
13.2003
13.2062
13.2106
13.2128
13.2121
13.2106
12.7197
12.7229
12.7237
12.7214
12.7166
12.7102
12.7032
12.6965
12.6917
12.6891
12.6892
12.6919
12.6969
12.7034
12.7112
12.7172
12.7222
12.7245
12.7237
12.7218
12.2337
12.2371
12.2378
12.2351
12.2294
12.2221
12.2143
12.207
12.202
12.1994
12.1995
12.2022
12.2074
12.2146
12.2236
12.2301
12.2359
12.2388
12.2381
12.2359
11.7511
11.7547
11.7548
11.7514
11.7448
11.7372
11.7282
11.7211
11.7164
11.7141
11.7142
11.7166
11.7215
11.7289
11.7379
11.7456
11.7525
11.756
11.7555
11.7533
11.2725
11.2756
11.2753
11.2713
11.264
11.2561
11.2475
11.2415
11.2379
11.2364
11.2364
11.2381
11.2419
11.2483
11.2567
11.265
11.2725
11.2767
11.2763
11.2744
10.7975
10.7997
10.7995
10.7953
10.7879
10.7806
10.7736
10.7694
10.7673
10.7666
10.7667
10.7676
10.7699
10.7742
10.7813
10.7889
10.7967
10.801
10.8009
10.7995
10.326
10.3281
10.3272
10.3234
10.317
10.311
10.3062
10.304
10.3032
10.3032
10.3033
10.3035
10.3045
10.3069
10.3118
10.318
10.3245
10.3289
10.3289
10.3282
9.85742
9.85842
9.8573
9.85455
9.85047
9.84646
9.84374
9.84288
9.84307
9.84347
9.84354
9.84326
9.84326
9.84443
9.84723
9.85139
9.85564
9.85858
9.85987
9.85978
9.39078
9.39062
9.38988
9.38845
9.38666
9.38513
9.3842
9.38422
9.38475
9.38521
9.3853
9.38504
9.38468
9.38482
9.38591
9.38764
9.38965
9.39133
9.39243
9.39335
8.92456
8.92355
8.92294
8.92303
8.92373
8.92489
8.92569
8.92657
8.92734
8.92782
8.9279
8.9276
8.92701
8.92631
8.92559
8.92476
8.92436
8.9248
8.9254
8.92724
8.45718
8.45543
8.45503
8.45657
8.45939
8.46352
8.46637
8.46851
8.46975
8.47035
8.47042
8.46996
8.46887
8.46688
8.46405
8.46042
8.45784
8.4569
8.45745
8.45996
7.98738
7.98509
7.98489
7.98732
7.99206
7.99846
8.00405
8.00817
8.01042
8.01145
8.01147
8.01053
8.00836
8.00441
7.99892
7.99297
7.98871
7.98679
7.98733
7.99028
7.5143
7.51176
7.51168
7.51461
7.5203
7.52826
7.53619
7.54257
7.54646
7.5483
7.54827
7.54639
7.54248
7.53628
7.52856
7.52118
7.51602
7.51371
7.51427
7.51747
7.03755
7.03502
7.03503
7.03807
7.04385
7.05198
7.0609
7.06874
7.07422
7.0769
7.07677
7.07386
7.06827
7.06054
7.052
7.04452
7.03946
7.03722
7.0379
7.0411
6.55716
6.55491
6.55507
6.55798
6.56324
6.57049
6.57872
6.58646
6.59229
6.59521
6.59492
6.59148
6.58538
6.5777
6.56991
6.5635
6.55927
6.55749
6.55834
6.56138
6.07348
6.07173
6.07221
6.07501
6.07962
6.0856
6.09224
6.09852
6.1033
6.10562
6.10509
6.10183
6.09647
6.09013
6.08403
6.07918
6.0761
6.07497
6.07598
6.07872
5.58692
5.58589
5.58696
5.58993
5.59414
5.59901
5.60397
5.60836
5.61147
5.61268
5.61178
5.60897
5.6048
5.60012
5.5958
5.59253
5.59063
5.59023
5.59146
5.59388
5.09782
5.09775
5.09982
5.10345
5.10774
5.11192
5.11551
5.11815
5.11954
5.11947
5.118
5.11544
5.11221
5.1089
5.10606
5.10418
5.10343
5.10385
5.10538
5.10756
4.60623
4.60742
4.61111
4.61619
4.6213
4.62527
4.62775
4.6288
4.6285
4.627
4.62462
4.62193
4.6192
4.61684
4.6151
4.61443
4.61486
4.61632
4.61847
4.62066
4.11186
4.11469
4.12093
4.1288
4.13585
4.14002
4.14135
4.14074
4.13859
4.13529
4.13147
4.12825
4.12563
4.12382
4.12289
4.12333
4.1251
4.12806
4.13139
4.13411
3.61412
3.61859
3.62904
3.64218
3.65317
3.65744
3.65699
3.65434
3.65007
3.64427
3.63794
3.63395
3.63116
3.62977
3.62923
3.63067
3.63405
3.63945
3.64504
3.64947
3.11217
3.11744
3.13353
3.15766
3.17704
3.18003
3.17493
3.16973
3.16347
3.154
3.14272
3.13802
3.13538
3.13594
3.13356
3.13549
3.14086
3.15045
3.1602
3.16897
2.6059
2.60573
2.62864
2.67681
2.71586
2.70701
2.69192
2.68623
2.68184
2.66603
2.64326
2.63781
2.64128
2.63456
2.62896
2.63377
2.64357
2.66087
2.67807
2.69842
2.1025
2.07359
2.10003
2.20777
2.30763
2.26195
2.20431
2.20509
2.22254
2.19031
2.13506
2.13433
2.16898
2.17841
2.14076
2.12396
2.15129
2.17692
2.1983
2.25097
1.62619
1.49107
1.48782
1.70013
1.93437
1.76505
1.58875
1.65645
1.7953
1.72756
1.55328
1.49268
1.64588
1.72069
1.60826
1.50463
1.60884
1.68714
1.69009
1.73544
1.26643
0.827174
0.693923
1.20212
1.91946
1.69325
1.08625
1.0995
1.61419
1.69842
1.04702
0.618276
1.26032
1.82131
1.36894
0.652144
0.999856
1.58746
1.47709
1.11576
0.772411
0.0655409
-0.864527
0.0285409
2.10598
1.94121
-0.207451
-0.734041
1.6244
2.57535
0.219553
-2.30539
0.206805
3.16129
1.46511
-1.85699
-0.817767
2.30047
1.94151
-0.765542
1.12857
0.0219843
-3.16214
-1.21904
5.48404
4.67719
-1.37194
-3.81584
2.66571
6.94808
-0.181155
-8.27116
-0.84376
8.69215
2.92542
-7.20512
-3.55581
6.09512
4.6175
-4.19522
0.194901
0.0222558
-0.383071
-0.114385
0.570377
0.733274
-0.168191
-0.670281
0.229887
1.01308
0.114685
-1.03323
-0.151242
1.07294
0.373296
-0.884285
-0.484883
0.878461
0.740195
-0.54156
-0.00200119
0.0102137
0.0351209
0.0315087
-0.00541452
-0.0132721
0.0182207
0.0288594
-0.00474213
-0.0220456
0.00837897
0.0487018
0.0153846
-0.0254175
0.00830678
0.0398978
0.0168584
-0.0181993
-0.015834
0.0229077
0.00850722
0.00311664
0.0145072
0.0380105
0.00870353
-0.00889358
0.0167871
0.0125464
-0.000626701
-0.00457757
0.00339967
0.0255122
0.0354762
-0.00239594
0.0325814
0.0200314
0.00274202
-0.00367808
0.00672239
0.00552494
0.00825413
0.00726986
0.00797578
0.00118113
0.00377065
0.0041959
0.0116201
0.00908532
0.000797674
0.000983669
0.004938
0.0108254
9.25231e-05
-0.000955993
-0.00156344
0.00789657
0.00711018
0.00246029
0.00495225
0.0032449
0.00610945
0.00567266
0.005393
0.00374132
0.00373448
0.00405943
0.00650053
0.00670296
0.00346627
0.00197622
0.00401016
0.00657256
0.00284525
0.000979989
0.00125493
0.00545966
0.00549524
0.0027548
0.00315581
0.00344274
0.0044286
0.00433931
0.00400239
0.00322633
0.00325665
0.00367103
0.00466619
0.00441235
0.00320447
0.00289938
0.0033315
0.0039428
0.00253334
0.00206875
0.00213764
0.00350803
0.0036004
0.0027731
0.00279465
0.00232726
0.00321814
0.00311731
0.00298558
0.00269881
0.00269432
0.0028372
0.00327673
0.00326736
0.00272282
0.00246261
0.00263202
0.0028753
0.00221261
0.00192583
0.00195989
0.00265268
0.00269114
0.0021676
0.00197908
0.00179043
0.00215316
0.0020907
0.00203868
0.00194793
0.00194833
0.00201836
0.00221493
0.00222183
0.00199876
0.00186375
0.00192979
0.00202311
0.00171884
0.00153276
0.00154717
0.00185078
0.00185475
0.00156927
0.00138866
0.00126634
0.00120218
0.00113863
0.00112144
0.00110626
0.00111883
0.00116143
0.00124173
0.00125124
0.00118237
0.00116079
0.00122708
0.00126255
0.00109642
0.000981727
0.00098004
0.00109011
0.00108841
0.000959157
0.000844211
0.0007604
0.000342095
0.000317483
0.000322786
0.000335793
0.00034516
0.000352326
0.000366704
0.000373112
0.000373615
0.00040845
0.000499344
0.000515783
0.00040207
0.000339941
0.000331047
0.000358768
0.000359425
0.000322861
0.000284855
0.000256239
)
;

boundaryField
{
    top
    {
        type            calculated;
        value           nonuniform List<scalar> 
20
(
-1.57903e-07
-1.43921e-07
-4.79404e-08
0
0
0
0
0
0
0
0
-6.15427e-07
-2.00956e-06
-3.14054e-06
-3.30904e-06
-2.32119e-06
-1.07345e-06
-3.08978e-07
-5.57909e-08
-1.62055e-08
)
;
    }
    left
    {
        type            calculated;
        value           nonuniform List<scalar> 
40
(
14.1931
13.6999
13.2086
12.7197
12.2337
11.7511
11.2725
10.7975
10.326
9.85742
9.39078
8.92456
8.45718
7.98738
7.5143
7.03755
6.55716
6.07348
5.58692
5.09782
4.60623
4.11186
3.61412
3.11217
2.6059
2.1025
1.62619
1.26643
0.772411
1.12857
0.194901
-0.00200119
0.00850722
0.00825413
0.00610945
0.0044286
0.00321814
0.00215316
0.00120218
0.000342095
)
;
    }
    right
    {
        type            calculated;
        value           nonuniform List<scalar> 
40
(
14.1944
13.7018
13.2106
12.7218
12.2359
11.7533
11.2744
10.7995
10.3282
9.85978
9.39335
8.92724
8.45996
7.99028
7.51747
7.0411
6.56138
6.07872
5.59388
5.10756
4.62066
4.13411
3.64947
3.16897
2.69842
2.25097
1.73544
1.11576
-0.765542
-4.19522
-0.54156
0.0229077
0.00552494
0.0032449
0.00344274
0.00232726
0.00179043
0.00126634
0.0007604
0.000256239
)
;
    }
    bottom
    {
        type            calculated;
        value           nonuniform List<scalar> 
20
(
14.4383
14.44
14.4403
14.4381
14.4331
14.426
14.4178
14.4102
14.4042
14.4009
14.401
14.4043
14.4104
14.4181
14.4263
14.4336
14.4387
14.4409
14.4405
14.4396
)
;
    }
    front
    {
        type            empty;
    }
    back
    {
        type            empty;
    }
    frontAndBack
    {
        type            empty;
    }
}


// ************************************************************************* //
