/*--------------------------------*- C++ -*----------------------------------*\
  =========                 |
  \\      /  F ield         | OpenFOAM: The Open Source CFD Toolbox
   \\    /   O peration     | Website:  https://openfoam.org
    \\  /    A nd           | Version:  10
     \\/     M anipulation  |
\*---------------------------------------------------------------------------*/
FoamFile
{
    format      ascii;
    class       volScalarField;
    location    "0.02";
    object      p_rgh;
}
// * * * * * * * * * * * * * * * * * * * * * * * * * * * * * * * * * * * * * //

dimensions      [1 -1 -2 0 0 0 0];

internalField   nonuniform List<scalar> 
800
(
14.4383
14.44
14.4403
14.4381
14.4331
14.426
14.4179
14.4102
14.4042
14.4009
14.401
14.4043
14.4104
14.4181
14.4263
14.4336
14.4387
14.4409
14.4405
14.4396
14.4357
14.4378
14.4384
14.4363
14.4318
14.4255
14.4185
14.412
14.4069
14.4041
14.4042
14.4071
14.4123
14.4191
14.4261
14.4324
14.4368
14.4392
14.4386
14.4375
14.4348
14.4376
14.4383
14.4362
14.4318
14.4259
14.4193
14.4131
14.4083
14.4058
14.4059
14.4085
14.4134
14.4196
14.4265
14.4324
14.4369
14.439
14.4384
14.4369
14.4364
14.4397
14.4404
14.4381
14.4334
14.4269
14.4199
14.4132
14.4084
14.4059
14.4059
14.4086
14.4136
14.4201
14.428
14.434
14.4389
14.4413
14.4405
14.4386
14.4409
14.4443
14.4451
14.4423
14.4367
14.4293
14.4216
14.4143
14.4093
14.4066
14.4067
14.4095
14.4147
14.4218
14.4308
14.4374
14.4432
14.446
14.4453
14.4432
14.4489
14.4525
14.4526
14.4492
14.4426
14.435
14.426
14.4188
14.4142
14.4119
14.412
14.4144
14.4192
14.4266
14.4356
14.4434
14.4503
14.4538
14.4533
14.4511
14.4608
14.4638
14.4635
14.4595
14.4522
14.4444
14.4357
14.4297
14.4261
14.4246
14.4247
14.4264
14.4301
14.4365
14.4449
14.4533
14.4608
14.465
14.4646
14.4627
14.4762
14.4785
14.4783
14.4741
14.4666
14.4593
14.4523
14.4482
14.4461
14.4454
14.4454
14.4463
14.4486
14.4529
14.46
14.4676
14.4754
14.4797
14.4797
14.4783
14.4952
14.4973
14.4964
14.4926
14.4863
14.4802
14.4755
14.4732
14.4725
14.4725
14.4725
14.4728
14.4738
14.4761
14.481
14.4872
14.4938
14.4981
14.4982
14.4975
14.5172
14.5182
14.517
14.5143
14.5102
14.5062
14.5035
14.5026
14.5028
14.5032
14.5033
14.503
14.503
14.5042
14.507
14.5111
14.5154
14.5183
14.5196
14.5195
14.541
14.5409
14.5401
14.5387
14.5369
14.5354
14.5344
14.5345
14.535
14.5354
14.5355
14.5353
14.5349
14.5351
14.5361
14.5379
14.5399
14.5416
14.5427
14.5436
14.5653
14.5643
14.5637
14.5638
14.5645
14.5656
14.5664
14.5673
14.5681
14.5686
14.5686
14.5683
14.5677
14.567
14.5663
14.5655
14.5651
14.5655
14.5661
14.568
14.5884
14.5867
14.5863
14.5878
14.5906
14.5948
14.5976
14.5997
14.601
14.6016
14.6017
14.6012
14.6001
14.5981
14.5953
14.5917
14.5891
14.5881
14.5887
14.5912
14.6091
14.6068
14.6066
14.6091
14.6138
14.6202
14.6258
14.6299
14.6322
14.6332
14.6332
14.6323
14.6301
14.6261
14.6207
14.6147
14.6104
14.6085
14.6091
14.612
14.6265
14.624
14.6239
14.6268
14.6325
14.6405
14.6484
14.6548
14.6587
14.6605
14.6605
14.6586
14.6547
14.6485
14.6408
14.6334
14.6283
14.6259
14.6265
14.6297
14.6403
14.6378
14.6378
14.6408
14.6466
14.6547
14.6636
14.6715
14.677
14.6796
14.6795
14.6766
14.671
14.6633
14.6547
14.6473
14.6422
14.64
14.6406
14.6438
14.6504
14.6481
14.6483
14.6512
14.6565
14.6637
14.672
14.6797
14.6855
14.6885
14.6882
14.6847
14.6786
14.6709
14.6632
14.6567
14.6525
14.6507
14.6516
14.6546
14.6572
14.6555
14.6559
14.6587
14.6634
14.6693
14.676
14.6823
14.687
14.6894
14.6888
14.6856
14.6802
14.6739
14.6678
14.6629
14.6598
14.6587
14.6597
14.6625
14.6612
14.6601
14.6612
14.6642
14.6684
14.6732
14.6782
14.6826
14.6857
14.6869
14.686
14.6832
14.679
14.6744
14.67
14.6668
14.6649
14.6645
14.6657
14.6681
14.6626
14.6625
14.6646
14.6682
14.6725
14.6767
14.6803
14.6829
14.6843
14.6842
14.6827
14.6802
14.677
14.6736
14.6708
14.6689
14.6682
14.6686
14.6701
14.6723
14.6615
14.6627
14.6664
14.6714
14.6765
14.6805
14.683
14.684
14.6837
14.6822
14.6799
14.6772
14.6744
14.6721
14.6703
14.6697
14.6701
14.6716
14.6737
14.6759
14.6576
14.6604
14.6667
14.6745
14.6816
14.6858
14.6871
14.6865
14.6843
14.681
14.6772
14.674
14.6714
14.6696
14.6686
14.6691
14.6708
14.6738
14.6771
14.6799
14.6504
14.6548
14.6653
14.6784
14.6894
14.6937
14.6932
14.6906
14.6863
14.6805
14.6742
14.6702
14.6674
14.666
14.6655
14.6669
14.6703
14.6757
14.6813
14.6857
14.6389
14.6442
14.6603
14.6844
14.7038
14.7068
14.7017
14.6965
14.6902
14.6807
14.6695
14.6648
14.6621
14.6627
14.6603
14.6622
14.6676
14.6772
14.6869
14.6957
14.6232
14.623
14.6459
14.6941
14.7331
14.7243
14.7092
14.7035
14.6991
14.6833
14.6605
14.6551
14.6585
14.6518
14.6462
14.651
14.6608
14.6781
14.6953
14.7157
14.6102
14.5813
14.6078
14.7155
14.8154
14.7697
14.7121
14.7128
14.7303
14.6981
14.6428
14.6421
14.6767
14.6862
14.6485
14.6317
14.659
14.6847
14.706
14.7587
14.6244
14.4893
14.4861
14.6984
14.9326
14.7633
14.587
14.6547
14.7935
14.7258
14.5515
14.4909
14.6441
14.7189
14.6065
14.5029
14.6071
14.6854
14.6883
14.7337
14.7552
14.3159
14.1827
14.6908
15.4082
15.182
14.575
14.5882
15.1029
15.1872
14.5358
14.107
14.749
15.3101
14.8577
14.1409
14.4886
15.0762
14.9658
14.6045
14.7517
14.0448
13.1147
14.0078
16.0852
15.9204
13.7718
13.2452
15.6036
16.5546
14.1988
11.6738
14.186
17.1405
15.4443
12.1222
13.1615
16.2797
15.9207
13.2137
13.7155
12.6118
9.4363
11.3467
18.191
17.3079
11.272
8.7741
15.3225
19.6148
12.4349
4.26007
11.7508
21.3569
15.5329
5.29837
8.97233
18.6747
17.1816
8.28513
2.19411
2.00957
1.56544
1.86606
2.63284
2.77388
1.83736
1.22191
2.25842
2.98712
2.10044
0.73527
1.79704
3.02237
2.33976
0.90474
1.40363
2.83923
2.72561
1.33477
0.0137552
0.0267756
0.0510085
0.0486243
0.0102267
0.00367052
0.0340047
0.0447115
0.0116938
-0.00386225
0.026847
0.0645686
0.0327493
-0.0084018
0.0255222
0.0560439
0.0337849
-0.000853659
0.00139976
0.0386897
0.0247584
0.0199476
0.0307536
0.0556224
0.0248328
0.00797466
0.0329882
0.0288676
0.0163198
0.011623
0.0217036
0.0418501
0.0544577
0.0138884
0.0512671
0.0366498
0.0201294
0.0130355
0.0227983
0.021772
0.0246966
0.0237019
0.0244075
0.0176134
0.0202072
0.020663
0.0280569
0.0255425
0.0172888
0.0174165
0.0213699
0.0272572
0.0165248
0.0154758
0.0148683
0.0243283
0.0235419
0.0188921
0.0213895
0.0196835
0.0230319
0.0225952
0.0223153
0.0206645
0.0206567
0.0209829
0.0234229
0.0236258
0.0203907
0.0188985
0.0209347
0.0234948
0.0197676
0.0179022
0.0181772
0.0223819
0.0224175
0.0196771
0.0200782
0.0203651
0.0218413
0.0217521
0.0214151
0.0206391
0.0206694
0.0210838
0.0220789
0.0218251
0.0206172
0.0203121
0.0207443
0.0213556
0.0199461
0.0194815
0.0195504
0.0209208
0.0210131
0.0201859
0.0202074
0.01974
0.0211214
0.0210206
0.0208888
0.0206021
0.0205976
0.0207404
0.02118
0.0211706
0.0206261
0.0203659
0.0205353
0.0207786
0.0201159
0.0198291
0.0198631
0.0205559
0.0205944
0.0200709
0.0198823
0.0196937
0.0205469
0.0204845
0.0204324
0.0203417
0.0203421
0.0204121
0.0206087
0.0206156
0.0203925
0.0202575
0.0203235
0.0204169
0.0201126
0.0199265
0.0199409
0.0202445
0.0202485
0.019963
0.0197824
0.0196601
0.0200864
0.0200229
0.0200057
0.0199905
0.0200031
0.0200457
0.020126
0.0201355
0.0200666
0.020045
0.0201113
0.0201468
0.0199807
0.019866
0.0198643
0.0199744
0.0199727
0.0198434
0.0197285
0.0196446
0.0197168
0.0196922
0.0196975
0.0197105
0.0197199
0.0197271
0.0197415
0.0197479
0.0197484
0.0197832
0.0198741
0.0198905
0.0197768
0.0197147
0.0197058
0.0197335
0.0197342
0.0196976
0.0196596
0.019631
)
;

boundaryField
{
    top
    {
        type            prghTotalPressure;
        rho             rho;
        psi             none;
        gamma           1;
        p0              uniform 0;
        value           nonuniform List<scalar> 
20
(
0.0196198
0.0196199
0.01962
0.01962
0.01962
0.01962
0.01962
0.01962
0.01962
0.01962
0.01962
0.0196194
0.019618
0.0196169
0.0196167
0.0196177
0.0196189
0.0196197
0.0196199
0.01962
)
;
        rho             rho;
    }
    left
    {
        type            fixedFluxPressure;
        gradient        uniform 0;
        value           nonuniform List<scalar> 
40
(
14.4383
14.4357
14.4348
14.4364
14.4409
14.4489
14.4608
14.4762
14.4952
14.5172
14.541
14.5653
14.5884
14.6091
14.6265
14.6403
14.6504
14.6572
14.6612
14.6626
14.6615
14.6576
14.6504
14.6389
14.6232
14.6102
14.6244
14.7552
14.7517
13.7155
2.19411
0.0137552
0.0247584
0.0246966
0.0230319
0.0218413
0.0211214
0.0205469
0.0200864
0.0197168
)
;
    }
    right
    {
        type            fixedFluxPressure;
        gradient        uniform 0;
        value           nonuniform List<scalar> 
40
(
14.4396
14.4375
14.4369
14.4386
14.4432
14.4511
14.4627
14.4783
14.4975
14.5195
14.5436
14.568
14.5912
14.612
14.6297
14.6438
14.6546
14.6625
14.6681
14.6723
14.6759
14.6799
14.6857
14.6957
14.7157
14.7587
14.7337
14.6045
13.2137
8.28513
1.33477
0.0386897
0.021772
0.0196835
0.0203651
0.01974
0.0196937
0.0196601
0.0196446
0.019631
)
;
    }
    bottom
    {
        type            fixedFluxPressure;
        gradient        nonuniform List<scalar> 
20
(
-0.000225897
-0.00103306
-0.00484143
-0.0198624
-0.0690611
-0.19697
-0.449955
-0.839403
-1.30174
-1.60028
-1.60011
-1.30129
-0.838884
-0.449517
-0.196693
-0.068921
-0.0198072
-0.00482483
-0.00102857
-0.000224723
)
;
        value           nonuniform List<scalar> 
20
(
14.4383
14.44
14.4403
14.4381
14.4331
14.426
14.4178
14.4102
14.4042
14.4009
14.401
14.4043
14.4104
14.4181
14.4263
14.4336
14.4387
14.4409
14.4405
14.4396
)
;
    }
    front
    {
        type            empty;
    }
    back
    {
        type            empty;
    }
    frontAndBack
    {
        type            empty;
    }
}


// ************************************************************************* //
