/*--------------------------------*- C++ -*----------------------------------*\
  =========                 |
  \\      /  F ield         | OpenFOAM: The Open Source CFD Toolbox
   \\    /   O peration     | Website:  https://openfoam.org
    \\  /    A nd           | Version:  10
     \\/     M anipulation  |
\*---------------------------------------------------------------------------*/
FoamFile
{
    format      ascii;
    class       surfaceScalarField;
    location    "0.02";
    object      phi;
}
// * * * * * * * * * * * * * * * * * * * * * * * * * * * * * * * * * * * * * //

dimensions      [0 3 -1 0 0 0 0];

internalField   nonuniform List<scalar> 
1540
(
1.15095e-13
-1.15151e-13
5.14185e-13
-3.99153e-13
1.081e-12
-5.66877e-13
1.64923e-12
-5.68302e-13
2.06663e-12
-4.17461e-13
2.22133e-12
-1.54769e-13
2.0592e-12
1.62068e-13
1.58676e-12
4.72374e-13
8.67735e-13
7.18964e-13
1.29918e-14
8.54679e-13
-8.40328e-13
8.53256e-13
-1.55793e-12
7.17537e-13
-2.03136e-12
4.73373e-13
-2.19883e-12
1.67399e-13
-2.05046e-12
-1.48428e-13
-1.63411e-12
-4.16415e-13
-1.06311e-12
-5.71054e-13
-5.06073e-13
-5.57106e-13
-1.09084e-13
-3.97057e-13
-1.09118e-13
4.03559e-13
-5.18774e-13
1.38524e-12
-1.3809e-12
2.65027e-12
-1.83198e-12
3.86644e-12
-1.78454e-12
4.73358e-12
-1.28468e-12
5.0221e-12
-4.43356e-13
4.61697e-12
5.67121e-13
3.53621e-12
1.55306e-12
1.91702e-12
2.33809e-12
1.82993e-15
2.76979e-12
-1.91384e-12
2.76886e-12
-3.5325e-12
2.33613e-12
-4.61923e-12
1.56003e-12
-5.03019e-12
5.78293e-13
-4.73207e-12
-4.46619e-13
-3.86556e-12
-1.28299e-12
-2.64799e-12
-1.7887e-12
-1.37646e-12
-1.82871e-12
-3.96677e-13
-1.37691e-12
-5.0583e-13
6.32503e-13
-1.15134e-12
2.03887e-12
-2.78735e-12
3.76795e-12
-3.56113e-12
5.39096e-12
-3.40762e-12
6.51892e-12
-2.41271e-12
6.8612e-12
-7.85707e-13
6.28378e-12
1.14446e-12
4.78839e-12
3.04838e-12
2.58691e-12
4.53949e-12
-4.56571e-15
5.3612e-12
-2.59614e-12
5.36036e-12
-4.79758e-12
4.53749e-12
-6.28509e-12
3.04748e-12
-6.86954e-12
1.16266e-12
-6.52818e-12
-7.88049e-13
-5.3938e-12
-2.41743e-12
-3.76569e-12
-3.41688e-12
-2.03025e-12
-3.56421e-12
-6.25248e-13
-2.78198e-12
-1.13111e-12
7.89362e-13
-1.94077e-12
2.50085e-12
-4.49891e-12
4.55905e-12
-5.61941e-12
6.46208e-12
-5.31073e-12
7.75712e-12
-3.70782e-12
8.11308e-12
-1.14174e-12
7.35893e-12
1.89854e-12
5.58077e-12
4.82647e-12
3.0039e-12
7.11629e-12
-7.97695e-15
8.373e-12
-3.02038e-12
8.37269e-12
-5.59749e-12
7.11453e-12
-7.37253e-12
4.82244e-12
-8.11034e-12
1.90041e-12
-7.76708e-12
-1.13138e-12
-6.46669e-12
-3.71789e-12
-4.55491e-12
-5.32874e-12
-2.48755e-12
-5.63165e-12
-7.81803e-13
-4.4878e-12
-1.91295e-12
8.94691e-13
-2.83553e-12
2.79455e-12
-6.39885e-12
5.0638e-12
-7.88873e-12
7.13354e-12
-7.38055e-12
8.50264e-12
-5.07699e-12
8.80551e-12
-1.44469e-12
7.91076e-12
2.79322e-12
5.94826e-12
6.7889e-12
3.18002e-12
9.88445e-12
-9.55213e-15
1.15625e-11
-3.19806e-12
1.15611e-11
-5.96326e-12
9.87966e-12
-7.92819e-12
6.7873e-12
-8.81481e-12
2.78696e-12
-8.51157e-12
-1.43469e-12
-7.138e-12
-5.09153e-12
-5.05934e-12
-7.40746e-12
-2.78333e-12
-7.90773e-12
-8.8355e-13
-6.38765e-12
-2.79654e-12
9.35261e-13
-3.77086e-12
2.90601e-12
-8.36967e-12
5.24188e-12
-1.02247e-11
7.33388e-12
-9.47263e-12
8.65585e-12
-6.39903e-12
8.84953e-12
-1.63845e-12
7.8377e-12
3.80498e-12
5.80252e-12
8.82401e-12
3.07068e-12
1.26162e-11
-1.04733e-14
1.46436e-11
-3.09041e-12
1.4641e-11
-5.81958e-12
1.26088e-11
-7.8475e-12
8.81515e-12
-8.85856e-12
3.79795e-12
-8.65483e-12
-1.63849e-12
-7.32674e-12
-6.41969e-12
-5.23863e-12
-9.49564e-12
-2.90126e-12
-1.02452e-11
-9.32383e-13
-8.3566e-12
-3.72895e-12
9.14562e-13
-4.68548e-12
2.80764e-12
-1.02628e-11
5.01747e-12
-1.24346e-11
6.95242e-12
-1.14077e-11
8.09754e-12
-7.54422e-12
8.12601e-12
-1.66699e-12
7.05646e-12
4.87446e-12
5.12938e-12
1.0751e-11
2.67612e-12
1.50694e-11
-1.15344e-14
1.73312e-11
-2.69851e-12
1.73279e-11
-5.14772e-12
1.50579e-11
-7.06617e-12
1.07335e-11
-8.13291e-12
4.86461e-12
-8.08356e-12
-1.68791e-12
-6.9511e-12
-7.55222e-12
-5.01699e-12
-1.14298e-11
-2.81928e-12
-1.24429e-11
-9.15224e-13
-1.02607e-11
-4.64421e-12
8.10194e-13
-5.49574e-12
2.46135e-12
-1.1914e-11
4.33316e-12
-1.43065e-11
5.9155e-12
-1.29901e-11
6.78565e-12
-8.41444e-12
6.67934e-12
-1.56076e-12
5.67599e-12
5.87774e-12
4.04318e-12
1.23838e-11
2.07896e-12
1.70336e-11
-1.35307e-14
1.94236e-11
-2.10499e-12
1.94193e-11
-4.06744e-12
1.70203e-11
-5.69376e-12
1.23598e-11
-6.68689e-12
5.85768e-12
-6.78883e-12
-1.58605e-12
-5.90726e-12
-8.43385e-12
-4.31854e-12
-1.30186e-11
-2.43816e-12
-1.43234e-11
-7.99733e-13
-1.18992e-11
-5.44398e-12
6.20466e-13
-6.11627e-12
1.85114e-12
-1.31448e-11
3.21692e-12
-1.56723e-11
4.34071e-12
-1.41139e-11
4.90059e-12
-8.9744e-12
4.7323e-12
-1.39254e-12
3.93824e-12
6.67173e-12
2.74827e-12
1.35737e-11
1.39002e-12
1.83917e-11
-1.38351e-14
2.08274e-11
-1.41712e-12
2.08225e-11
-2.77651e-12
1.83796e-11
-3.96156e-12
1.35448e-11
-4.73786e-12
6.63392e-12
-4.90075e-12
-1.42322e-12
-4.32772e-12
-9.00695e-12
-3.19963e-12
-1.41468e-11
-1.81893e-12
-1.57041e-11
-6.0229e-13
-1.31159e-11
-6.0463e-12
3.58692e-13
-6.47503e-12
1.01916e-12
-1.38053e-11
1.74645e-12
-1.63997e-11
2.35455e-12
-1.47221e-11
2.6482e-12
-9.26811e-12
2.54417e-12
-1.28858e-12
2.07678e-12
7.13905e-12
1.42041e-12
1.423e-11
7.04669e-13
1.91074e-11
-1.327e-14
2.15452e-11
-7.28884e-13
2.15381e-11
-1.43782e-12
1.90885e-11
-2.0885e-12
1.41954e-11
-2.54616e-12
7.09152e-12
-2.63855e-12
-1.3309e-12
-2.33888e-12
-9.30669e-12
-1.72882e-12
-1.47569e-11
-1.00046e-12
-1.64326e-11
-3.43432e-13
-1.3773e-11
-6.38976e-12
4.53283e-14
-6.52042e-12
8.74618e-14
-1.38475e-11
1.24164e-13
-1.64364e-11
1.7429e-13
-1.47723e-11
2.35612e-13
-9.3295e-12
2.70792e-13
-1.32383e-12
2.31789e-13
7.17798e-12
1.52585e-13
1.43091e-11
6.67405e-14
1.91932e-11
-1.43412e-14
2.16263e-11
-9.2695e-14
2.16163e-11
-1.69746e-13
1.91655e-11
-2.37357e-13
1.42629e-11
-2.65821e-13
7.11992e-12
-2.23714e-13
-1.37307e-12
-1.57281e-13
-9.37318e-12
-1.05517e-13
-1.48087e-11
-6.58918e-14
-1.64723e-11
-2.84648e-14
-1.38105e-11
-6.41826e-12
-2.55863e-13
-6.26462e-12
-8.18168e-13
-1.32853e-11
-1.4676e-12
-1.57871e-11
-1.97315e-12
-1.42668e-11
-2.14482e-12
-9.1579e-12
-1.96117e-12
-1.50754e-12
-1.56387e-12
6.78062e-12
-1.07158e-12
1.38167e-11
-5.46513e-13
1.86681e-11
-1.59107e-14
2.10956e-11
5.17541e-13
2.10828e-11
1.052e-12
1.86309e-11
1.55838e-12
1.37565e-11
1.96925e-12
6.70899e-12
2.16092e-12
-1.5648e-12
1.98821e-12
-9.20053e-12
1.48652e-12
-1.43071e-11
8.43563e-13
-1.58294e-11
2.75033e-13
-1.3242e-11
-6.14326e-12
-5.12326e-13
-5.75235e-12
-1.59919e-12
-1.21985e-11
-2.84996e-12
-1.45364e-11
-3.87058e-12
-1.32462e-11
-4.31552e-12
-8.71302e-12
-4.06921e-12
-1.75392e-12
-3.30032e-12
6.01167e-12
-2.26953e-12
1.27859e-11
-1.1517e-12
1.75502e-11
-1.76212e-14
1.99614e-11
1.11988e-12
1.99453e-11
2.24873e-12
1.7502e-11
3.29548e-12
1.27097e-11
4.07779e-12
5.92662e-12
4.33044e-12
-1.81751e-12
3.88725e-12
-8.75741e-12
2.87079e-12
-1.32907e-11
1.62348e-12
-1.45821e-11
5.32342e-13
-1.2151e-11
-5.61094e-12
-6.94432e-13
-5.05797e-12
-2.16218e-12
-1.07308e-11
-3.86495e-12
-1.28337e-11
-5.3138e-12
-1.17975e-11
-6.07245e-12
-7.95443e-12
-5.9002e-12
-1.92623e-12
-4.90038e-12
5.0118e-12
-3.42311e-12
1.13086e-11
-1.75068e-12
1.58777e-11
-1.98771e-14
1.82306e-11
1.71471e-12
1.82106e-11
3.39891e-12
1.58178e-11
4.89216e-12
1.12164e-11
5.90298e-12
4.91574e-12
6.08614e-12
-2.00073e-12
5.33572e-12
-8.00704e-12
3.88966e-12
-1.18447e-11
2.18739e-12
-1.28799e-11
7.15544e-13
-1.06792e-11
-4.89542e-12
-7.84095e-13
-4.27393e-12
-2.4514e-12
-9.06357e-12
-4.41249e-12
-1.08726e-11
-6.15147e-12
-1.00585e-11
-7.19152e-12
-6.91444e-12
-7.19713e-12
-1.92067e-12
-6.16497e-12
3.97957e-12
-4.413e-12
9.55654e-12
-2.29124e-12
1.37559e-11
-2.36378e-14
1.59629e-11
2.24812e-12
1.59388e-11
4.38085e-12
1.3685e-11
6.14476e-12
9.45241e-12
7.18696e-12
3.87349e-12
7.19684e-12
-2.01066e-12
6.17026e-12
-6.98051e-12
4.43986e-12
-1.01143e-11
2.47956e-12
-1.09197e-11
8.07732e-13
-9.00738e-12
-4.08772e-12
-7.81362e-13
-3.49262e-12
-2.46548e-12
-7.3795e-12
-4.47438e-12
-8.86377e-12
-6.31066e-12
-8.22232e-12
-7.51218e-12
-5.71298e-12
-7.71653e-12
-1.71638e-12
-6.82014e-12
3.08313e-12
-5.01974e-12
7.75609e-12
-2.65464e-12
1.13907e-11
-3.01681e-14
1.33384e-11
2.59833e-12
1.33102e-11
4.97269e-12
1.13106e-11
6.78238e-12
7.64267e-12
7.6924e-12
2.96343e-12
7.50657e-12
-1.82488e-12
6.32451e-12
-5.7985e-12
4.50302e-12
-8.29288e-12
2.49709e-12
-8.91378e-12
8.08316e-13
-7.31865e-12
-3.27942e-12
-7.05063e-13
-2.7876e-12
-2.2571e-12
-5.82752e-12
-4.13173e-12
-6.98918e-12
-5.87769e-12
-6.47641e-12
-7.08589e-12
-4.50482e-12
-7.41875e-12
-1.38357e-12
-6.71778e-12
2.38212e-12
-5.06406e-12
6.10232e-12
-2.7257e-12
9.05229e-12
-4.15824e-14
1.06542e-11
2.64601e-12
1.06226e-11
4.99288e-12
8.96366e-12
6.65873e-12
5.97678e-12
7.37894e-12
2.24317e-12
7.06963e-12
-1.51562e-12
5.88756e-12
-4.61648e-12
4.16146e-12
-6.56683e-12
2.29398e-12
-7.04634e-12
7.36705e-13
-5.76143e-12
-2.54274e-12
-5.83318e-13
-2.20432e-12
-1.90888e-12
-4.502e-12
-3.52962e-12
-5.36849e-12
-5.05571e-12
-4.95036e-12
-6.14303e-12
-3.41754e-12
-6.50526e-12
-1.02138e-12
-5.9789e-12
1.85571e-12
-4.58016e-12
4.70353e-12
-2.50199e-12
6.97408e-12
-5.93578e-14
8.21157e-12
2.38714e-12
8.17606e-12
4.47677e-12
6.87399e-12
5.89435e-12
4.55915e-12
6.44756e-12
1.68991e-12
6.11683e-12
-1.18493e-12
5.06266e-12
-3.56236e-12
3.56248e-12
-5.0667e-12
1.95288e-12
-5.43679e-12
6.21032e-13
-4.42963e-12
-1.92174e-12
-4.42887e-13
-1.76147e-12
-1.50199e-12
-3.44293e-12
-2.81649e-12
-4.05402e-12
-4.06379e-12
-3.7031e-12
-4.96383e-12
-2.51754e-12
-5.28936e-12
-6.95892e-13
-4.90036e-12
1.46667e-12
-3.79043e-12
3.59356e-12
-2.0984e-12
5.28201e-12
-8.2864e-14
6.19599e-12
1.93835e-12
6.15481e-12
3.64872e-12
5.16358e-12
4.78686e-12
3.42097e-12
5.21374e-12
1.26299e-12
4.92943e-12
-9.00666e-13
4.07027e-12
-2.70324e-12
2.85511e-12
-3.85158e-12
1.5559e-12
-4.13763e-12
4.88712e-13
-3.36249e-12
-1.43305e-12
-3.02429e-13
-1.45907e-12
-1.09513e-12
-2.65026e-12
-2.1009e-12
-3.04829e-12
-3.06425e-12
-2.73979e-12
-3.76357e-12
-1.81826e-12
-4.02967e-12
-4.29829e-13
-3.75303e-12
1.19e-12
-2.92522e-12
2.76571e-12
-1.64599e-12
4.00274e-12
-1.09985e-13
4.65995e-12
1.4343e-12
4.61048e-12
2.7426e-12
3.85524e-12
3.6105e-12
2.55303e-12
3.93972e-12
9.33722e-13
3.72561e-12
-6.86604e-13
3.07516e-12
-2.05283e-12
2.14944e-12
-2.92591e-12
1.16227e-12
-3.15051e-12
3.58744e-13
-2.55901e-12
-1.07433e-12
-1.71454e-13
-1.28764e-12
-7.19444e-13
-2.1023e-12
-1.44038e-12
-2.32738e-12
-2.14363e-12
-2.03657e-12
-2.65523e-12
-1.3067e-12
-2.8649e-12
-2.2019e-13
-2.68606e-12
1.01112e-12
-2.11577e-12
2.19539e-12
-1.2219e-12
3.10884e-12
-1.37977e-13
3.57598e-12
9.5636e-13
3.5161e-12
1.8959e-12
2.91566e-12
2.51991e-12
1.92897e-12
2.77132e-12
6.82266e-13
2.62464e-12
-5.39972e-13
2.16834e-12
-1.59657e-12
1.50542e-12
-2.26305e-12
8.04378e-13
-2.44952e-12
2.41114e-13
-1.9958e-12
-8.33245e-13
-5.56167e-14
-1.23205e-12
-3.84121e-13
-1.77382e-12
-8.50049e-13
-1.86148e-12
-1.32675e-12
-1.5599e-12
-1.67029e-12
-9.63178e-13
-1.82994e-12
-6.05705e-14
-1.74135e-12
9.225e-13
-1.40029e-12
1.85429e-12
-8.49929e-13
2.55844e-12
-1.63786e-13
2.8898e-12
5.30578e-13
2.8217e-12
1.15762e-12
2.28857e-12
1.56467e-12
1.52188e-12
1.75792e-12
4.88976e-13
1.66431e-12
-4.46415e-13
1.38301e-12
-1.31533e-12
9.4283e-13
-1.82292e-12
4.93355e-13
-2.0001e-12
1.38331e-13
-1.64084e-12
-6.94943e-13
6.04497e-14
-1.29252e-12
-8.38697e-14
-1.62952e-12
-3.24313e-13
-1.62106e-12
-6.00372e-13
-1.28387e-12
-7.76877e-13
-7.86701e-13
-9.12826e-13
7.53485e-14
-8.99564e-13
9.09207e-13
-7.64058e-13
1.71875e-12
-5.27399e-13
2.32174e-12
-1.85633e-13
2.54799e-12
1.58662e-13
2.47736e-12
5.27613e-13
1.91957e-12
7.31541e-13
1.3179e-12
8.99208e-13
3.21259e-13
8.35879e-13
-3.83138e-13
7.25251e-13
-1.20476e-12
4.57661e-13
-1.55539e-12
2.23426e-13
-1.76592e-12
4.97212e-14
-1.46719e-12
-6.45254e-13
1.6818e-13
-1.46072e-12
1.90664e-13
-1.65203e-12
1.52346e-13
-1.58276e-12
5.06869e-14
-1.18223e-12
4.02792e-14
-7.76321e-13
-3.7598e-14
1.53196e-13
-1.12597e-13
9.84174e-13
-1.69725e-13
1.77584e-12
-2.46926e-13
2.39891e-12
-2.15089e-13
2.51611e-12
-2.11298e-13
2.47353e-12
-5.48977e-14
1.76313e-12
2.28673e-14
1.24009e-12
1.63012e-13
1.8106e-13
1.58802e-13
-3.78983e-13
1.58825e-13
-1.20484e-12
4.41728e-14
-1.4408e-12
-2.13869e-14
-1.70043e-12
-4.09094e-14
-1.44774e-12
-6.86197e-13
3.09855e-13
-1.7706e-12
4.76807e-13
-1.81901e-12
6.27956e-13
-1.73394e-12
7.03567e-13
-1.25787e-12
8.52368e-13
-9.25151e-13
7.96773e-13
2.08759e-13
6.341e-13
1.14681e-12
3.84754e-13
2.02515e-12
2.43341e-14
2.75929e-12
-2.36353e-13
2.77676e-12
-5.72832e-13
2.80996e-12
-5.24601e-13
1.71484e-12
-5.28095e-13
1.24352e-12
-5.03156e-13
1.56065e-13
-5.61754e-13
-3.20445e-13
-3.13239e-13
-1.45342e-12
-3.04849e-13
-1.44925e-12
-2.27269e-13
-1.77808e-12
-1.6247e-13
-1.51261e-12
-8.48701e-13
4.4984e-13
-2.22046e-12
6.08378e-13
-1.97757e-12
9.26219e-13
-2.05181e-12
1.21453e-12
-1.54621e-12
1.85613e-12
-1.56678e-12
1.87632e-12
1.88532e-13
1.57671e-12
1.44638e-12
1.06115e-12
2.54067e-12
3.90436e-13
3.42996e-12
-3.04217e-13
3.47136e-12
-1.18335e-12
3.68904e-12
-1.22544e-12
1.75688e-12
-1.31186e-12
1.32989e-12
-9.19471e-13
-2.36381e-13
-7.08356e-13
-5.31621e-13
-4.57924e-13
-1.70391e-12
-3.15696e-13
-1.59155e-12
-2.99107e-13
-1.79473e-12
-2.84597e-13
-1.52719e-12
-1.13333e-12
1.22948e-12
-3.44996e-12
1.10941e-12
-1.85752e-12
1.47921e-12
-2.42163e-12
1.86111e-12
-1.92815e-12
3.38385e-12
-3.08955e-12
3.2463e-12
3.26047e-13
2.51038e-12
2.18227e-12
1.63983e-12
3.41118e-12
9.75624e-13
4.09412e-12
-3.08629e-13
4.75557e-12
-1.46622e-12
4.84658e-12
-1.97237e-12
2.26298e-12
-1.49236e-12
8.49823e-13
-1.33569e-12
-3.9311e-13
-1.27454e-12
-5.92827e-13
-9.76665e-13
-2.00185e-12
-5.44446e-13
-2.02383e-12
-4.46236e-13
-1.89301e-12
-5.82242e-13
-1.39124e-12
-1.7156e-12
2.23043e-12
-5.68041e-12
1.32714e-12
-9.54256e-13
5.26318e-13
-1.62083e-12
1.03017e-12
-2.43202e-12
4.98e-12
-7.03941e-12
5.37717e-12
-7.11418e-14
3.79247e-12
3.76693e-12
1.97221e-12
5.23141e-12
1.35872e-12
4.70757e-12
1.59673e-13
5.95458e-12
-2.16897e-12
7.17518e-12
-4.33591e-12
4.42989e-12
-3.43075e-12
-5.53762e-14
-7.67408e-13
-3.0565e-12
5.20342e-13
-1.88062e-12
-7.79291e-13
-7.02265e-13
-5.74397e-14
-2.74573e-12
8.1123e-13
-2.76173e-12
3.8662e-13
-9.66678e-13
-1.329e-12
7.15375e-12
-1.28342e-11
6.65862e-12
-4.59134e-13
-9.72407e-13
6.01018e-12
-1.55079e-12
-1.85365e-12
1.05328e-11
-1.9123e-11
1.3574e-11
-3.11235e-12
5.71399e-12
1.16269e-11
-3.37997e-12
1.43254e-11
9.55458e-13
3.72123e-13
2.01725e-12
4.89277e-12
-1.04667e-12
1.02391e-11
-1.37364e-11
1.71196e-11
-1.06162e-11
-3.17556e-12
7.02807e-13
-1.43755e-11
4.9527e-12
-6.13054e-12
-3.60306e-12
7.85348e-12
-4.88021e-12
-1.4686e-12
1.25583e-12
-8.89779e-12
2.87253e-12
-2.5834e-12
1.54353e-12
1.52274e-11
-2.80616e-11
1.50356e-11
-2.67317e-13
-1.83426e-11
3.93883e-11
-3.4777e-11
1.45808e-11
1.2839e-11
-6.67391e-11
2.19155e-11
-1.21888e-11
-1.38546e-12
3.49279e-11
-2.37062e-11
3.66461e-11
-4.48831e-12
-1.88458e-11
1.31091e-11
-1.27046e-11
6.95652e-12
1.63916e-11
-3.46863e-11
5.87624e-11
-2.54598e-11
-1.2402e-11
1.93633e-11
-5.91987e-11
2.53377e-11
-1.21049e-11
-1.41025e-11
4.72936e-11
-1.42541e-11
-1.31701e-12
9.03637e-12
-3.21882e-11
1.27028e-11
-6.24982e-12
1.42463e-11
2.37195e-11
-5.17811e-11
1.69895e-11
6.46269e-12
-4.08682e-11
9.72461e-11
-3.22154e-11
5.92802e-12
6.03206e-12
-1.04986e-10
2.94849e-11
-3.56416e-11
-2.72198e-12
6.71348e-11
-2.86675e-11
6.25917e-11
-1.1323e-12
-4.63809e-11
1.16949e-11
-2.55317e-11
1.67884e-11
1.12982e-11
-2.74006e-11
1.02951e-10
-6.74487e-12
-3.30576e-11
3.4635e-11
-1.00578e-10
3.74949e-11
-1.49647e-11
-8.8109e-13
8.56698e-11
-3.69107e-12
1.49314e-12
1.94001e-11
-5.52792e-11
1.40365e-11
-8.85991e-13
2.8283e-11
-1.592e-11
-3.5861e-11
-3.8483e-11
2.90258e-11
-8.87676e-12
6.76399e-11
3.31248e-11
-3.60734e-11
7.88836e-12
-7.97498e-11
-2.47351e-11
-3.01794e-12
-5.2093e-12
4.76093e-11
1.662e-11
4.07628e-11
-1.07095e-11
-1.90511e-11
-3.07725e-11
-5.46825e-12
-3.77296e-11
1.82558e-11
2.1907e-11
4.33155e-11
2.88238e-11
-3.99737e-11
-1.95885e-11
-5.21654e-11
8.20014e-13
-3.53724e-11
3.73809e-11
4.91098e-11
2.56622e-11
1.32127e-11
5.18993e-12
-3.48059e-11
-2.46381e-11
2.89431e-11
3.64545e-12
-4.29867e-11
7.12579e-12
-2.33721e-11
9.41144e-12
1.98993e-11
2.43687e-11
4.57428e-11
-6.19167e-11
-1.16032e-11
-2.24035e-11
1.01492e-11
-2.47699e-11
-1.10149e-11
6.87738e-11
-2.04389e-11
5.01873e-11
-3.59814e-11
-3.50785e-12
-5.88977e-11
1.74488e-11
-3.25631e-11
-8.0779e-12
-3.1349e-11
4.21025e-11
4.78285e-12
-7.61045e-11
-2.51769e-11
-2.22045e-11
-7.72193e-13
-5.97759e-11
1.64656e-11
3.18733e-11
1.30629e-11
1.66168e-11
9.27119e-12
-3.10127e-11
6.84121e-12
3.13746e-11
1.04874e-11
-1.42768e-12
8.55361e-12
-2.08327e-13
8.19225e-12
2.26616e-11
1.49902e-12
-1.00268e-11
-2.92281e-11
-1.32426e-11
-1.91873e-11
-3.5358e-11
-2.6541e-12
-5.66869e-12
3.9085e-11
2.23755e-12
4.22817e-11
-2.37015e-11
2.24319e-11
-2.15673e-11
1.53154e-11
-2.58348e-11
-3.80953e-12
1.14681e-11
4.80059e-12
-2.13913e-11
-4.32441e-11
-1.01675e-11
-3.34271e-11
-2.86853e-11
-4.12568e-11
-9.6048e-13
4.1498e-12
9.23913e-12
6.41864e-12
-9.65695e-12
-1.21151e-11
4.59912e-12
1.712e-11
1.50871e-11
2.92831e-12
5.62541e-12
5.3198e-12
5.80091e-12
8.19653e-12
-1.37753e-12
-6.62865e-12
-1.44026e-11
-1.85352e-11
-7.2805e-12
-2.62133e-11
5.02438e-12
-1.39536e-11
2.68257e-11
-1.60048e-12
2.99291e-11
-2.11626e-12
2.29484e-11
-3.41769e-12
1.66176e-11
-5.7225e-12
-1.50389e-12
6.44463e-12
-7.36563e-12
-5.53049e-12
-3.1268e-11
-1.11731e-11
-2.77834e-11
-2.16998e-11
-3.07289e-11
-7.45751e-12
-1.00912e-11
7.89392e-13
-1.82695e-12
-9.41731e-12
-1.90698e-12
-6.27188e-12
1.3976e-11
8.81582e-12
2.33993e-12
3.28557e-12
4.76813e-12
3.37282e-12
3.51106e-12
-1.20315e-13
-6.0126e-12
-4.87879e-12
-1.31325e-11
-1.60352e-13
-1.63818e-11
8.27393e-12
-9.27118e-12
1.97155e-11
-1.96217e-12
2.26205e-11
2.03387e-12
1.89529e-11
5.57185e-12
1.30802e-11
4.36433e-12
-2.95674e-13
5.96841e-12
-8.96895e-12
-2.64583e-12
-2.26529e-11
-6.65166e-12
-2.37767e-11
-1.29855e-11
-2.43941e-11
-9.89877e-12
-1.31769e-11
-6.88546e-12
-4.83917e-12
-8.89998e-12
1.0869e-13
-3.25503e-12
8.33214e-12
5.56124e-12
1.66488e-12
1.62075e-12
2.94529e-12
2.0925e-12
1.76421e-12
1.06087e-12
-3.38234e-12
2.67902e-13
-7.32003e-12
3.77752e-12
-8.50508e-12
9.45922e-12
-4.5394e-12
1.57501e-11
4.35124e-13
1.76463e-11
4.10262e-12
1.52858e-11
7.34997e-12
9.83334e-12
6.88961e-12
1.65222e-13
6.0593e-12
-8.13805e-12
4.39912e-13
-1.70329e-11
-3.98993e-12
-1.93462e-11
-9.00093e-12
-1.93824e-11
-9.21089e-12
-1.29662e-11
-7.90496e-12
-6.14425e-12
-7.05851e-12
-7.3687e-13
-2.72949e-12
4.00397e-12
2.83208e-12
1.03628e-12
5.84517e-13
1.89954e-12
1.22929e-12
1.36486e-12
1.59562e-12
-8.93949e-13
2.52681e-12
-2.67656e-12
5.56026e-12
-2.85898e-12
9.6418e-12
-5.91262e-13
1.34826e-11
2.45931e-12
1.4596e-11
5.10269e-12
1.26427e-11
7.08044e-12
7.85592e-12
6.87947e-12
3.66559e-13
5.48909e-12
-6.74728e-12
1.47439e-12
-1.30178e-11
-2.187e-12
-1.56843e-11
-5.85958e-12
-1.57093e-11
-6.98754e-12
-1.18377e-11
-6.4078e-12
-6.7234e-12
-4.94637e-12
-2.19768e-12
-1.88301e-12
9.41204e-13
9.4927e-13
7.66014e-13
-1.81476e-13
1.41984e-12
5.75491e-13
1.5376e-12
1.47791e-12
8.91496e-13
3.17296e-12
4.19047e-13
6.03277e-12
6.77655e-13
9.38329e-12
1.98307e-12
1.21773e-11
3.60725e-12
1.2972e-11
4.98443e-12
1.12656e-11
5.82101e-12
7.01951e-12
5.53356e-12
6.54203e-13
4.29247e-12
-5.50598e-12
1.66318e-12
-1.03882e-11
-9.14863e-13
-1.3106e-11
-3.2439e-12
-1.338e-11
-4.26404e-12
-1.08173e-11
-4.04209e-12
-6.94503e-12
-2.91346e-12
-3.32598e-12
-1.06594e-12
-9.06016e-13
-1.16605e-13
5.98183e-13
1.24371e-12
1.78281e-12
1.95408e-12
2.1093e-12
2.514e-12
3.2452e-12
4.01779e-12
4.49869e-12
4.36319e-12
3.41322e-12
2.11646e-12
8.68478e-13
-1.73548e-13
-1.02531e-12
-1.43694e-12
-1.39224e-12
-9.85128e-13
-3.60575e-13
)
;

boundaryField
{
    top
    {
        type            calculated;
        value           nonuniform List<scalar> 
20
(
-7.79652e-13
-7.00324e-14
9.38829e-13
3.0017e-12
5.87757e-12
8.97862e-12
1.14461e-11
1.21994e-11
1.07848e-11
7.15507e-12
1.60423e-12
-4.20916e-12
-9.14019e-12
-1.2064e-11
-1.25282e-11
-1.04056e-11
-6.98964e-12
-3.73302e-12
-1.5305e-12
-4.77179e-13
)
;
    }
    left
    {
        type            calculated;
        value           uniform 0;
    }
    right
    {
        type            calculated;
        value           uniform 0;
    }
    bottom
    {
        type            calculated;
        value           nonuniform List<scalar> 
20
(
0
-4.81482e-35
0
0
0
0
0
0
0
0
0
0
0
0
-6.16298e-33
0
0
0
0
0
)
;
    }
    front
    {
        type            empty;
        value           nonuniform List<scalar> 0();
    }
    back
    {
        type            empty;
        value           nonuniform List<scalar> 0();
    }
    frontAndBack
    {
        type            empty;
        value           nonuniform List<scalar> 0();
    }
}


// ************************************************************************* //
