/*--------------------------------*- C++ -*----------------------------------*\
  =========                 |
  \\      /  F ield         | OpenFOAM: The Open Source CFD Toolbox
   \\    /   O peration     | Website:  https://openfoam.org
    \\  /    A nd           | Version:  10
     \\/     M anipulation  |
\*---------------------------------------------------------------------------*/
FoamFile
{
    format      ascii;
    class       volScalarField;
    location    "0.02";
    object      T;
}
// * * * * * * * * * * * * * * * * * * * * * * * * * * * * * * * * * * * * * //

dimensions      [0 0 0 1 0 0 0];

internalField   nonuniform List<scalar> 
800
(
300
300
300
300
300.001
300.002
300.005
300.009
300.013
300.016
300.016
300.013
300.009
300.005
300.002
300.001
300
300
300
300
300
300
300
300.001
300.003
300.009
300.019
300.033
300.051
300.062
300.062
300.051
300.033
300.019
300.009
300.003
300.001
300
300
300
300
300
300.001
300.005
300.015
300.038
300.078
300.132
300.193
300.232
300.232
300.193
300.132
300.078
300.038
300.015
300.005
300.001
300
300
300
300.001
300.005
300.02
300.059
300.142
300.276
300.445
300.625
300.739
300.738
300.625
300.445
300.276
300.142
300.059
300.02
300.005
300.001
300
300.001
300.005
300.019
300.067
300.192
300.439
300.809
301.236
301.659
301.919
301.919
301.659
301.236
300.809
300.439
300.192
300.067
300.019
300.005
300.001
300.003
300.014
300.055
300.184
300.499
301.089
301.906
302.749
303.497
303.939
303.938
303.497
302.748
301.906
301.089
300.499
300.184
300.055
300.014
300.003
300.008
300.031
300.124
300.399
301.035
302.141
303.541
304.803
305.758
306.274
306.274
305.757
304.802
303.539
302.14
301.034
300.399
300.124
300.031
300.008
300.014
300.057
300.223
300.703
301.754
303.421
305.283
306.766
307.718
308.175
308.175
307.717
306.765
305.28
303.418
301.753
300.702
300.222
300.057
300.014
300.021
300.083
300.324
301.019
302.503
304.686
306.767
308.196
308.976
309.304
309.303
308.975
308.194
306.764
304.681
302.5
301.017
300.323
300.083
300.021
300.024
300.098
300.385
301.229
303.026
305.566
307.724
308.998
309.583
309.792
309.792
309.582
308.995
307.719
305.559
303.02
301.226
300.384
300.098
300.024
300.023
300.094
300.383
301.263
303.178
305.886
308.103
309.3
309.782
309.931
309.931
309.781
309.297
308.095
305.875
303.169
301.258
300.382
300.094
300.023
300.017
300.073
300.316
301.105
302.912
305.587
307.928
309.229
309.754
309.913
309.913
309.752
309.223
307.917
305.572
302.9
301.099
300.314
300.073
300.017
300.01
300.046
300.215
300.818
302.314
304.747
307.199
308.758
309.485
309.737
309.735
309.481
308.748
307.182
304.728
302.3
300.812
300.214
300.045
300.01
300.005
300.024
300.124
300.518
301.595
303.563
305.885
307.68
308.724
309.155
309.153
308.715
307.662
305.862
303.541
301.581
300.512
300.123
300.024
300.005
300.002
300.01
300.058
300.263
300.882
302.166
303.981
305.756
307.059
307.69
307.684
307.044
305.731
303.954
302.145
300.872
300.26
300.058
300.01
300.002
300.001
300.004
300.022
300.104
300.376
301.01
302.074
303.371
304.53
305.163
305.157
304.511
303.345
302.051
300.996
300.37
300.103
300.022
300.004
300.001
300
300.001
300.007
300.033
300.124
300.358
300.804
301.447
302.115
302.516
302.511
302.101
301.431
300.792
300.351
300.122
300.032
300.006
300.001
300
300
300
300.002
300.008
300.033
300.098
300.232
300.444
300.687
300.843
300.841
300.681
300.437
300.227
300.096
300.032
300.008
300.002
300
300
300
300
300
300.002
300.007
300.021
300.051
300.098
300.154
300.191
300.19
300.152
300.096
300.05
300.021
300.007
300.002
300
300
300
300
300
300
300
300.001
300.004
300.009
300.016
300.024
300.029
300.029
300.024
300.016
300.009
300.004
300.001
300
300
300
300
300
300
300
300
300
300.001
300.001
300.002
300.003
300.003
300.003
300.003
300.002
300.001
300.001
300
300
300
300
300
300
300
300
300
300
300
300
300
300
300
300
300
300
300
300
300
300
300
300
300
300
300
300
300
300
300
300
300
300
300
300
300
300
300
300
300
300
300
300
300
300
300
300
300
300
300
300
300
300
300
300
300
300
300
300
300
300
300
300
300
300
300
300
300
300
300
300
300
300
300
300
300
300
300
300
300
300
300
300
300
300
300
300
300
300
300
300
300
300
300
300
300
300
300
300
300
300
300
300
300
300
300
300
300
300
300
300
300
300
300
300
300
300
300
300
300
300
300
300
300
300
300
300
300
300
300
300
300
300
300
300
300
300
300
300
300
300
300
300
300
300
300
300
300
300
300
300
300
300
300
300
300
300
300
300
300
300
300
300
300
300
300
300
300
300
300
300
300
300
300
300
300
300
300
300
300
300
300
300
300
300
300
300
300
300
300
300
300
300
300
300
300
300
300
300
300
300
300
300
300
300
300
300
300
300
300
300
300
300
300
300
300
300
300
300
300
300
300
300
300
300
300
300
300
300
300
300
300
300
300
300
300
300
300
300
300
300
300
300
300
300
300
300
300
300
300
300
300
300
300
300
300
300
300
300
300
300
300
300
300
300
300
300
300
300
300
300
300
300
300
300
300
300
300
300
300
300
300
300
300
300
300
300
300
300
300
300
300
300
300
300
300
300
300
300
300
300
300
300
300
300
300
300
300
300
300
300
300
300
300
300
300
300
300
300
300
300
300
300
300
300
300
300
300
300
300
300
300
300
300
300
300
300
300
300
300
300
300
300
300
300
300
300
300
300
300
300
300
300
300
300
300
300
300
300
300
300
300
300
300
300
300
300
300
300
300
300
300
300
300
300
300
300
300
300
300
300
300
300
300
)
;

boundaryField
{
    top
    {
        type            inletOutlet;
        inletValue      uniform 300;
        value           nonuniform List<scalar> 
20
(
300
300
300
300
300
300
300
300
300
300
300
300
300
300
300
300
300
300
300
300
)
;
    }
    left
    {
        type            zeroGradient;
    }
    right
    {
        type            zeroGradient;
    }
    bottom
    {
        type            zeroGradient;
    }
    front
    {
        type            empty;
    }
    back
    {
        type            empty;
    }
    frontAndBack
    {
        type            empty;
    }
}


// ************************************************************************* //
