/*--------------------------------*- C++ -*----------------------------------*\
  =========                 |
  \\      /  F ield         | OpenFOAM: The Open Source CFD Toolbox
   \\    /   O peration     | Website:  https://openfoam.org
    \\  /    A nd           | Version:  10
     \\/     M anipulation  |
\*---------------------------------------------------------------------------*/
FoamFile
{
    format      ascii;
    class       volVectorField;
    location    "0.02";
    object      U;
}
// * * * * * * * * * * * * * * * * * * * * * * * * * * * * * * * * * * * * * //

dimensions      [0 1 -1 0 0 0 0];

internalField   nonuniform List<vector> 
800
(
(5.20755e-07 -7.28982e-07 0)
(5.3241e-05 -1.46756e-05 0)
(0.000156479 -2.39767e-05 0)
(0.000276385 -2.51832e-05 0)
(0.000380232 -1.91389e-05 0)
(0.000440865 -7.94506e-06 0)
(0.000441159 5.48858e-06 0)
(0.000376297 1.85795e-05 0)
(0.000253463 2.902e-05 0)
(9.08884e-05 3.47348e-05 0)
(-8.56187e-05 3.45963e-05 0)
(-0.000247811 2.88829e-05 0)
(-0.000370574 1.8644e-05 0)
(-0.000436212 6.04677e-06 0)
(-0.000437064 -7.08164e-06 0)
(-0.000377049 -1.88218e-05 0)
(-0.000273183 -2.5268e-05 0)
(-0.000153902 -2.26381e-05 0)
(-5.15707e-05 -1.43414e-05 0)
(2.1385e-07 -7.44659e-08 0)
(1.39872e-05 -5.25111e-05 0)
(0.000160379 -0.000156825 0)
(0.000397945 -0.000216083 0)
(0.000660973 -0.000214233 0)
(0.000881854 -0.000156297 0)
(0.00100537 -5.64629e-05 0)
(0.000996331 6.37409e-05 0)
(0.000844178 0.000181646 0)
(0.000565076 0.000275423 0)
(0.000198935 0.00032708 0)
(-0.000198287 0.000326785 0)
(-0.000564421 0.000275066 0)
(-0.00084403 0.000182385 0)
(-0.000997364 6.55514e-05 0)
(-0.00100622 -5.57902e-05 0)
(-0.000881789 -0.000155957 0)
(-0.000660615 -0.000214812 0)
(-0.00039672 -0.000214298 0)
(-0.000158532 -0.000156125 0)
(-1.31254e-05 -5.05736e-05 0)
(2.50132e-05 -0.000159142 0)
(0.000244312 -0.000399998 0)
(0.000574782 -0.000519934 0)
(0.00093006 -0.000502248 0)
(0.00122194 -0.000358944 0)
(0.00137979 -0.000121165 0)
(0.00135929 0.000163168 0)
(0.00114659 0.000443254 0)
(0.000764542 0.000664423 0)
(0.000267833 0.000786366 0)
(-0.000269753 0.000786189 0)
(-0.000766428 0.000664104 0)
(-0.00114772 0.000444042 0)
(-0.0013603 0.000166127 0)
(-0.00138159 -0.000121545 0)
(-0.00122335 -0.000359294 0)
(-0.000930233 -0.000503514 0)
(-0.000573514 -0.000519774 0)
(-0.000242324 -0.000399051 0)
(-2.41295e-05 -0.000155859 0)
(3.21481e-05 -0.000304029 0)
(0.000303256 -0.00071726 0)
(0.000700351 -0.000905161 0)
(0.00112018 -0.000861016 0)
(0.00145976 -0.000606217 0)
(0.0016369 -0.000193467 0)
(0.00159955 0.000297419 0)
(0.00133917 0.000775974 0)
(0.000888832 0.00115186 0)
(0.000310319 0.00135875 0)
(-0.000313667 0.00135865 0)
(-0.000892315 0.00115146 0)
(-0.00134222 0.000775647 0)
(-0.00160061 0.000299469 0)
(-0.00163774 -0.000192566 0)
(-0.00146138 -0.000607623 0)
(-0.00112032 -0.00086374 0)
(-0.000698447 -0.00090668 0)
(-0.000300833 -0.000715593 0)
(-3.12547e-05 -0.000299175 0)
(3.74109e-05 -0.000474864 0)
(0.000341729 -0.00108389 0)
(0.00078088 -0.00134475 0)
(0.00124099 -0.00126508 0)
(0.00160645 -0.000878199 0)
(0.00178586 -0.000262406 0)
(0.00172747 0.00046296 0)
(0.00143218 0.00115568 0)
(0.00094295 0.0016961 0)
(0.000327583 0.00199129 0)
(-0.000331395 0.00199114 0)
(-0.000946422 0.0016955 0)
(-0.00143557 0.00115507 0)
(-0.00173012 0.000462733 0)
(-0.00178773 -0.000260312 0)
(-0.00160789 -0.000880663 0)
(-0.00124102 -0.00126968 0)
(-0.000779165 -0.001348 0)
(-0.000339045 -0.00108159 0)
(-3.60283e-05 -0.000468103 0)
(3.95855e-05 -0.000660547 0)
(0.000357106 -0.00147747 0)
(0.000811085 -0.00181354 0)
(0.00128111 -0.00168953 0)
(0.00164456 -0.00115375 0)
(0.00180705 -0.000314918 0)
(0.00172323 0.000655429 0)
(0.00140673 0.00156218 0)
(0.000913695 0.00225687 0)
(0.000314948 0.00263155 0)
(-0.000319197 0.00263118 0)
(-0.000917494 0.00225573 0)
(-0.00140957 0.00156117 0)
(-0.00172528 0.000654294 0)
(-0.00180774 -0.000313912 0)
(-0.00164365 -0.0011572 0)
(-0.00128007 -0.00169472 0)
(-0.000810337 -0.00181748 0)
(-0.000356327 -0.00147506 0)
(-3.89927e-05 -0.000652424 0)
(3.98495e-05 -0.000848692 0)
(0.000347849 -0.00187149 0)
(0.000780934 -0.00227751 0)
(0.00122123 -0.00210093 0)
(0.00154969 -0.00140612 0)
(0.00167563 -0.000338124 0)
(0.00156667 0.000867669 0)
(0.00125365 0.00196639 0)
(0.000800392 0.00278607 0)
(0.000272872 0.00322014 0)
(-0.000277607 0.00321955 0)
(-0.000804655 0.00278417 0)
(-0.00125667 0.00196386 0)
(-0.00156838 0.000866019 0)
(-0.00167485 -0.000340056 0)
(-0.00154802 -0.00140885 0)
(-0.00122104 -0.0021053 0)
(-0.000782071 -0.00228026 0)
(-0.000348885 -0.00187 0)
(-3.96073e-05 -0.000840429 0)
(3.64583e-05 -0.00102457 0)
(0.000307585 -0.00223381 0)
(0.000679867 -0.0026946 0)
(0.00104716 -0.00245967 0)
(0.00130957 -0.00161039 0)
(0.00139143 -0.000328228 0)
(0.00127389 0.001081 0)
(0.000997203 0.00233037 0)
(0.00062482 0.00323591 0)
(0.00021024 0.00370579 0)
(-0.000215706 0.00370501 0)
(-0.000630073 0.00323342 0)
(-0.00100165 0.00232629 0)
(-0.00127662 0.00107799 0)
(-0.00139246 -0.000332597 0)
(-0.00130897 -0.00161305 0)
(-0.00104487 -0.00246433 0)
(-0.000675939 -0.00269711 0)
(-0.000304011 -0.00223206 0)
(-3.52307e-05 -0.00101537 0)
(2.93156e-05 -0.00117089 0)
(0.000234145 -0.00252864 0)
(0.000508165 -0.00302516 0)
(0.000772551 -0.00273434 0)
(0.000953481 -0.00175294 0)
(0.000996054 -0.000296256 0)
(0.000893657 0.00126731 0)
(0.000684297 0.00261865 0)
(0.000420372 0.0035724 0)
(0.000139162 0.00405825 0)
(-0.000144816 0.00405736 0)
(-0.000426145 0.0035699 0)
(-0.000689713 0.00261341 0)
(-0.000896724 0.00126162 0)
(-0.000996686 -0.000301869 0)
(-0.000952195 -0.00175802 0)
(-0.000769445 -0.00274045 0)
(-0.000502944 -0.00302992 0)
(-0.00022861 -0.00252429 0)
(-2.73065e-05 -0.00115872 0)
(1.87592e-05 -0.00127087 0)
(0.000132216 -0.002722 0)
(0.00027738 -0.00323845 0)
(0.000418147 -0.00290902 0)
(0.000515444 -0.0018365 0)
(0.000537204 -0.000264307 0)
(0.000476879 0.00139859 0)
(0.000357797 0.0028067 0)
(0.000215136 0.00378076 0)
(6.93636e-05 0.0042699 0)
(-7.46939e-05 0.00426878 0)
(-0.000219577 0.0037778 0)
(-0.000361014 0.00280048 0)
(-0.000478338 0.00139017 0)
(-0.000536407 -0.000271632 0)
(-0.000512864 -0.00184361 0)
(-0.000414803 -0.00291585 0)
(-0.00027355 -0.0032448 0)
(-0.000128153 -0.0027158 0)
(-1.69298e-05 -0.00125529 0)
(4.4719e-06 -0.00131157 0)
(1.47915e-05 -0.00279289 0)
(2.05346e-05 -0.00331563 0)
(2.76415e-05 -0.0029749 0)
(3.97525e-05 -0.00187082 0)
(5.27031e-05 -0.000255054 0)
(5.39059e-05 0.00145147 0)
(4.05287e-05 0.0028814 0)
(2.23486e-05 0.00386022 0)
(5.10535e-06 0.00434751 0)
(-1.10836e-05 0.00434583 0)
(-2.72646e-05 0.00385569 0)
(-4.32134e-05 0.00287348 0)
(-5.40283e-05 0.00144099 0)
(-5.08406e-05 -0.000264168 0)
(-3.66684e-05 -0.00187903 0)
(-2.40296e-05 -0.00298194 0)
(-1.63904e-05 -0.00332244 0)
(-1.02861e-05 -0.00278579 0)
(-2.32148e-06 -0.00129278 0)
(-9.09756e-06 -0.00128976 0)
(-9.87513e-05 -0.00273872 0)
(-0.000230487 -0.00325167 0)
(-0.000357041 -0.00292808 0)
(-0.000429961 -0.00186017 0)
(-0.000425252 -0.000278341 0)
(-0.000359879 0.00141444 0)
(-0.000265795 0.00283925 0)
(-0.000162051 0.00381582 0)
(-5.61095e-05 0.00430255 0)
(4.95924e-05 0.00430032 0)
(0.000156799 0.00380943 0)
(0.000263076 0.00282875 0)
(0.000360158 0.00140157 0)
(0.000427753 -0.000288903 0)
(0.000433072 -0.00186868 0)
(0.000360372 -0.00293563 0)
(0.000235029 -0.00325934 0)
(0.000103855 -0.00273054 0)
(1.15568e-05 -0.00126735 0)
(-2.04854e-05 -0.0012106 0)
(-0.000196048 -0.00256872 0)
(-0.000446796 -0.00305641 0)
(-0.000692449 -0.00277269 0)
(-0.000850455 -0.00179964 0)
(-0.000868654 -0.000325533 0)
(-0.000756198 0.00129309 0)
(-0.000565247 0.00268365 0)
(-0.000344315 0.00364999 0)
(-0.000117285 0.00413556 0)
(0.000110078 0.00413269 0)
(0.00033863 0.00364152 0)
(0.00056248 0.00267006 0)
(0.000756566 0.00127753 0)
(0.000871052 -0.000337441 0)
(0.000853602 -0.00180815 0)
(0.000696116 -0.00278097 0)
(0.000451409 -0.00306506 0)
(0.000201166 -0.0025595 0)
(2.31571e-05 -0.00118425 0)
(-2.83997e-05 -0.00108665 0)
(-0.000265367 -0.00230606 0)
(-0.000603243 -0.00275341 0)
(-0.000941599 -0.00252062 0)
(-0.00117913 -0.00167919 0)
(-0.00124001 -0.000372345 0)
(-0.00111156 0.00110913 0)
(-0.000848925 0.00242669 0)
(-0.000523608 0.00336721 0)
(-0.000178562 0.00384703 0)
(0.00017045 0.00384343 0)
(0.000517179 0.00335641 0)
(0.000845471 0.00240984 0)
(0.00111092 0.00109111 0)
(0.00124159 -0.000385919 0)
(0.00118263 -0.00168855 0)
(0.000946252 -0.00252948 0)
(0.000608372 -0.00276239 0)
(0.000270689 -0.00229595 0)
(3.13311e-05 -0.00105617 0)
(-3.19471e-05 -0.00093522 0)
(-0.000299917 -0.00198449 0)
(-0.00068477 -0.00237784 0)
(-0.00107968 -0.00219441 0)
(-0.00137752 -0.00149629 0)
(-0.00148907 -0.000392033 0)
(-0.00137817 0.000898439 0)
(-0.00108415 0.00209484 0)
(-0.000683008 0.00298001 0)
(-0.000235135 0.00344077 0)
(0.000225574 0.00343635 0)
(0.000675093 0.00296689 0)
(0.00107866 0.00207521 0)
(0.00137488 0.000878327 0)
(0.00148833 -0.000408148 0)
(0.00137982 -0.00150773 0)
(0.00108436 -0.0022043 0)
(0.000690511 -0.00238682 0)
(0.000305847 -0.00197344 0)
(3.53038e-05 -0.000900249 0)
(-3.10975e-05 -0.000775463 0)
(-0.000299905 -0.00164195 0)
(-0.000690336 -0.0019718 0)
(-0.00109902 -0.00182847 0)
(-0.00142322 -0.00126666 0)
(-0.00157429 -0.000370555 0)
(-0.00150159 0.000700216 0)
(-0.00121874 0.00173001 0)
(-0.000786929 0.00251983 0)
(-0.00027473 0.00293964 0)
(0.00026258 0.0029344 0)
(0.000776199 0.00250472 0)
(0.00120991 0.00170834 0)
(0.00149498 0.000677848 0)
(0.0015709 -0.00039005 0)
(0.00142388 -0.00128137 0)
(0.00110335 -0.00184061 0)
(0.000696636 -0.00198107 0)
(0.000306638 -0.00162992 0)
(3.49945e-05 -0.000735417 0)
(-2.6804e-05 -0.000624493 0)
(-0.00027232 -0.00131296 0)
(-0.000634088 -0.00157658 0)
(-0.0010179 -0.00146308 0)
(-0.00133211 -0.00101962 0)
(-0.00149788 -0.00031373 0)
(-0.00146176 0.000538443 0)
(-0.00121696 0.00137704 0)
(-0.000803121 0.00203735 0)
(-0.000284955 0.00239434 0)
(0.000268188 0.00238838 0)
(0.00078759 0.00202057 0)
(0.00120345 0.00135334 0)
(0.0014513 0.000512917 0)
(0.00149176 -0.000337332 0)
(0.00133122 -0.00103882 0)
(0.00102193 -0.00147861 0)
(0.000641114 -0.00158676 0)
(0.000280214 -0.00129987 0)
(3.14256e-05 -0.000578571 0)
(-2.04359e-05 -0.000494391 0)
(-0.000227613 -0.00102229 0)
(-0.000538871 -0.00122317 0)
(-0.000872151 -0.00113153 0)
(-0.00114948 -0.000785654 0)
(-0.00130531 -0.000240857 0)
(-0.00129177 0.000416089 0)
(-0.00109334 0.00106766 0)
(-0.000733058 0.00158711 0)
(-0.000264932 0.00187022 0)
(0.000241032 0.00186355 0)
(0.000710681 0.00156842 0)
(0.00107391 0.00104099 0)
(0.00127685 0.000386082 0)
(0.00129634 -0.000269903 0)
(0.00114724 -0.00081071 0)
(0.000876197 -0.00115157 0)
(0.000546998 -0.00123509 0)
(0.000237035 -0.00100796 0)
(2.59764e-05 -0.000441514 0)
(-1.32109e-05 -0.000391444 0)
(-0.000175824 -0.000783097 0)
(-0.000427276 -0.000928578 0)
(-0.000698771 -0.000852793 0)
(-0.000926433 -0.000585103 0)
(-0.00105802 -0.000170064 0)
(-0.00105492 0.000325821 0)
(-0.000901262 0.000815911 0)
(-0.000611035 0.00120659 0)
(-0.000226178 0.00141915 0)
(0.000192925 0.00141156 0)
(0.000580156 0.00118501 0)
(0.000874956 0.000784597 0)
(0.00103522 0.000289393 0)
(0.00104638 -0.000206361 0)
(0.00092326 -0.000617514 0)
(0.000703299 -0.00087856 0)
(0.000437022 -0.000943026 0)
(0.000187293 -0.000767236 0)
(1.99648e-05 -0.000330183 0)
(-5.85783e-06 -0.000317189 0)
(-0.000124043 -0.000598601 0)
(-0.000315651 -0.000697298 0)
(-0.000524799 -0.000632316 0)
(-0.000701088 -0.000425234 0)
(-0.000804571 -0.000110324 0)
(-0.000806262 0.000260363 0)
(-0.000693242 0.000623134 0)
(-0.000474947 0.000909816 0)
(-0.00018221 0.00106381 0)
(0.000138194 0.00105481 0)
(0.000434661 0.000883557 0)
(0.000659817 0.000584953 0)
(0.000782135 0.000214922 0)
(0.000791142 -0.000156019 0)
(0.000697913 -0.000466646 0)
(0.00053065 -0.000665068 0)
(0.000327712 -0.000715071 0)
(0.000138183 -0.000580776 0)
(1.42093e-05 -0.000245695 0)
(1.44691e-06 -0.000270284 0)
(-7.58133e-05 -0.000465837 0)
(-0.000212627 -0.000526191 0)
(-0.000364594 -0.000467148 0)
(-0.000493506 -0.000305013 0)
(-0.000570589 -6.3275e-05 0)
(-0.00057579 0.000215521 0)
(-0.000498993 0.000484826 0)
(-0.000347128 0.000694513 0)
(-0.000140997 0.000804057 0)
(8.58117e-05 0.000793156 0)
(0.000297616 0.000660787 0)
(0.000459398 0.000437229 0)
(0.000548847 0.000157771 0)
(0.00055762 -0.000120408 0)
(0.000492298 -0.000357176 0)
(0.000373283 -0.000507956 0)
(0.000228026 -0.000547968 0)
(9.35368e-05 -0.000445467 0)
(9.06418e-06 -0.00018631 0)
(8.83799e-06 -0.000248248 0)
(-3.19743e-05 -0.000379948 0)
(-0.000120433 -0.000409661 0)
(-0.000222172 -0.00035131 0)
(-0.000309222 -0.000220682 0)
(-0.000362728 -2.64924e-05 0)
(-0.000371713 0.000188936 0)
(-0.000327132 0.000394931 0)
(-0.000234509 0.000552158 0)
(-0.000104786 0.000629662 0)
(3.87388e-05 0.000616759 0)
(0.000177219 0.000506114 0)
(0.000284199 0.000335311 0)
(0.000345646 0.000113562 0)
(0.000354733 -9.74744e-05 0)
(0.000313418 -0.000285292 0)
(0.000236489 -0.000399803 0)
(0.000140822 -0.000435015 0)
(5.45343e-05 -0.000355261 0)
(4.39535e-06 -0.000149122 0)
(1.64677e-05 -0.000249792 0)
(7.46752e-06 -0.000335667 0)
(-3.70915e-05 -0.00034147 0)
(-9.49533e-05 -0.000278995 0)
(-0.000143575 -0.000170939 0)
(-0.000175834 -8.89359e-08 0)
(-0.000190784 0.00017873 0)
(-0.0001743 0.000348962 0)
(-0.000135617 0.000476065 0)
(-7.28702e-05 0.000530213 0)
(-4.53111e-06 0.000515769 0)
(7.27161e-05 0.000409396 0)
(0.000132472 0.000274406 0)
(0.000170853 7.45058e-05 0)
(0.000181635 -8.35446e-05 0)
(0.000160382 -0.000246492 0)
(0.000120324 -0.000330437 0)
(6.50176e-05 -0.000367649 0)
(2.12726e-05 -0.000303316 0)
(5.44373e-08 -0.000130468 0)
(2.29651e-05 -0.000268906 0)
(4.35448e-05 -0.000317087 0)
(4.0121e-05 -0.000303256 0)
(1.93371e-05 -0.000230188 0)
(8.74699e-06 -0.000137039 0)
(1.9399e-06 3.55602e-05 0)
(-2.08526e-05 0.000195481 0)
(-3.03016e-05 0.000346891 0)
(-4.62435e-05 0.00046387 0)
(-4.49414e-05 0.00049776 0)
(-4.77327e-05 0.000486032 0)
(-2.04149e-05 0.000365476 0)
(-6.58069e-06 0.000256054 0)
(1.89703e-05 7.37671e-05 0)
(3.83445e-05 -5.8097e-05 0)
(3.1131e-05 -0.000228509 0)
(2.47972e-05 -0.000292 0)
(-2.88923e-06 -0.000337882 0)
(-8.38935e-06 -0.000284227 0)
(-4.11896e-06 -0.000128675 0)
(3.92661e-05 -0.000331386 0)
(8.32679e-05 -0.000366173 0)
(0.000117669 -0.000358326 0)
(0.000127915 -0.000278748 0)
(0.000158173 -0.000213643 0)
(0.000175991 -6.91264e-06 0)
(0.000132484 0.000172803 0)
(0.000105938 0.000338767 0)
(3.54869e-05 0.000472244 0)
(-1.96873e-05 0.000490968 0)
(-9.29346e-05 0.000490186 0)
(-0.000105434 0.000304208 0)
(-0.000105752 0.000196091 0)
(-0.000101847 -3.89296e-05 0)
(-0.000104327 -0.00013712 0)
(-9.1659e-05 -0.000295565 0)
(-5.45291e-05 -0.000317403 0)
(-6.24903e-05 -0.000361034 0)
(-3.53086e-05 -0.000305027 0)
(-1.3235e-05 -0.000158243 0)
(4.16679e-05 -0.000356311 0)
(9.70475e-05 -0.000315718 0)
(0.000164832 -0.000278983 0)
(0.00020451 -0.000168372 0)
(0.000297769 -0.000116329 0)
(0.000388865 0.000166292 0)
(0.000325418 0.000405234 0)
(0.000275756 0.000577834 0)
(0.000131798 0.000732696 0)
(1.24408e-05 0.000737404 0)
(-0.000170635 0.00076424 0)
(-0.000234577 0.000526117 0)
(-0.000253417 0.00042141 0)
(-0.000227355 0.00012601 0)
(-0.000159365 7.79492e-05 0)
(-0.00012091 -0.000172139 0)
(-5.99641e-05 -0.000166448 0)
(-7.64012e-05 -0.00026455 0)
(-5.40962e-05 -0.000224125 0)
(-1.59436e-05 -0.00010598 0)
(0.000107436 -0.000632435 0)
(0.000196618 -0.000510254 0)
(0.000269349 -0.000554754 0)
(0.000331976 -0.000598929 0)
(0.000477216 -0.000680918 0)
(0.000661136 -0.000368027 0)
(0.000521058 -4.98796e-05 0)
(0.000432817 0.000203237 0)
(0.000237416 0.000354997 0)
(6.25346e-05 0.000328889 0)
(-0.000199855 0.000440223 0)
(-0.000318603 0.000111436 0)
(-0.000324275 -0.000131132 0)
(-0.000277305 -0.000509619 0)
(-0.000267043 -0.000463476 0)
(-0.000214682 -0.000632042 0)
(-8.33732e-05 -0.000603929 0)
(-0.000108361 -0.000729085 0)
(-9.04548e-05 -0.000616628 0)
(-4.91979e-05 -0.000339064 0)
(0.000212983 -0.000717644 0)
(0.000290955 -3.60131e-05 0)
(6.33856e-05 0.00017157 0)
(0.000223234 9.07093e-05 0)
(0.000436424 -0.000472121 0)
(0.00093961 0.000553122 0)
(0.000796326 0.00139958 0)
(0.000682097 0.00189927 0)
(0.000306451 0.00157049 0)
(0.000158581 0.00183692 0)
(-0.000213572 0.00205553 0)
(-0.000606165 0.00175119 0)
(-0.000576385 0.000854554 0)
(-0.000305407 -6.27736e-06 0)
(-6.3237e-05 0.000203091 0)
(4.51274e-07 0.000283475 0)
(-6.00688e-06 0.000228657 0)
(7.09706e-05 -0.000250797 0)
(1.80454e-05 -0.000141388 0)
(5.70093e-05 0.000250372 0)
(0.000858234 -0.00217647 0)
(0.00125566 -0.000911112 0)
(0.000241105 -0.000571662 0)
(2.20414e-05 -0.00139712 0)
(0.000383321 -0.00421383 0)
(0.00231736 -0.00159508 0)
(0.00121123 -6.90221e-05 0)
(0.000410383 0.000421602 0)
(-0.00018188 -0.000822239 0)
(0.00057927 -0.00018419 0)
(-0.000125023 0.000784934 0)
(-0.001297 0.0010868 0)
(-0.0018206 -0.00114254 0)
(-0.000657198 -0.00271704 0)
(0.000329888 -0.00164835 0)
(0.000180337 -0.000362824 0)
(-0.000511332 -0.00123175 0)
(-0.000165814 -0.00206133 0)
(7.45995e-05 -0.00126661 0)
(0.000116367 -0.000252683 0)
(0.00255715 -0.00148985 0)
(0.00275089 0.00124449 0)
(-0.00100603 0.00338241 0)
(-0.00504749 0.00184381 0)
(-0.00124841 -0.000213892 0)
(0.00360421 0.00267196 0)
(0.00151283 0.0050998 0)
(-0.00252137 0.00553141 0)
(-0.00158751 0.00269245 0)
(0.00166131 0.00424514 0)
(0.00145086 0.00367315 0)
(-0.00296861 0.00532782 0)
(-0.00446761 0.000854771 0)
(-0.00019304 -0.000853592 0)
(0.00355496 0.000657002 0)
(0.000686368 0.00326022 0)
(-0.00141778 0.00154847 0)
(-0.00019119 4.25843e-05 0)
(0.00150874 0.00198278 0)
(0.000104953 0.00141707 0)
(0.00291441 -0.0065903 0)
(0.00443652 -0.00100693 0)
(-0.00146477 0.00387901 0)
(-0.00957807 8.35869e-06 0)
(0.000479614 -0.0173516 0)
(0.00202613 -0.00471494 0)
(0.00489452 0.00211908 0)
(-0.00649135 0.00132742 0)
(0.000324635 -0.00815818 0)
(0.000438038 -0.00508424 0)
(0.00309496 0.000646433 0)
(-0.00232682 0.00531135 0)
(-0.00233018 -0.00531881 0)
(0.00219866 -0.011931 0)
(0.0066044 -0.00364394 0)
(0.00188475 0.00504636 0)
(0.000663542 -0.00458278 0)
(0.000445686 -0.00683132 0)
(0.00388549 -0.0027157 0)
(-0.0015112 -0.000993063 0)
(-0.000847541 -0.0113837 0)
(-0.00474289 0.00242345 0)
(-0.00375534 0.0256802 0)
(0.000727928 0.000821712 0)
(0.00380065 -0.0262169 0)
(-0.00224574 -0.0114915 0)
(0.00112944 0.0168796 0)
(-0.000565419 0.0186844 0)
(-0.00118705 -0.0088468 0)
(-0.0051693 -0.0155579 0)
(-0.00218555 0.0038632 0)
(-0.00118339 0.0311079 0)
(0.00108097 -0.00583762 0)
(0.000168549 -0.0310935 0)
(0.00158959 -0.00683249 0)
(0.0047044 0.0267264 0)
(0.00349559 0.0053805 0)
(0.000116682 -0.0180402 0)
(0.0022728 -0.00510091 0)
(-0.00495643 0.0121012 0)
(-0.00411963 -0.00367122 0)
(-0.00748882 0.00633739 0)
(4.49219e-05 0.0120011 0)
(0.00694522 -0.0117066 0)
(0.00322646 -0.0105748 0)
(-0.000237597 -0.00146025 0)
(0.000597976 0.0146158 0)
(-0.00284941 0.0108808 0)
(-0.00577248 -0.00084929 0)
(-0.00970309 0.00197795 0)
(-0.00801439 0.00212972 0)
(-0.00566166 0.00880737 0)
(-0.00276414 -0.0121733 0)
(-0.00247274 -0.00819064 0)
(-0.00222896 -0.00829005 0)
(0.00265599 0.00879108 0)
(0.00176924 0.00353321 0)
(0.00177446 -0.00528007 0)
(0.00292315 0.00843291 0)
(-0.000507761 0.000643684 0)
(-0.000524444 0.00231342 0)
(-0.000527513 0.00121705 0)
(0.00267021 0.0012911 0)
(0.00181835 -0.00954323 0)
(-0.00236863 -0.00394843 0)
(-0.00518587 -0.00396318 0)
(-0.00367725 0.0104726 0)
(-0.00011726 0.011162 0)
(-0.0023946 0.00331002 0)
(-0.00417962 0.00235607 0)
(-0.00429439 -0.00195565 0)
(-0.00125692 0.00556763 0)
(-0.00106949 -0.0117132 0)
(-0.00287076 -0.00727332 0)
(-0.00352885 -0.0114122 0)
(-0.00301671 0.00518206 0)
(0.00108156 0.00350481 0)
(-0.000208833 -0.00628127 0)
(6.33379e-05 0.00399733 0)
(0.000303416 0.00549211 0)
(0.000183067 0.00145469 0)
(0.000865672 0.00139728 0)
(0.00169996 -0.000309331 0)
(0.000432658 -0.00497623 0)
(-0.00254489 -0.00242013 0)
(-0.00477495 0.000357919 0)
(-0.00434747 0.00666467 0)
(-0.00128543 0.00631166 0)
(-0.000341961 0.00433261 0)
(-0.000388985 0.00428738 0)
(-0.000990798 -0.000492633 0)
(0.000160115 -0.00126769 0)
(0.000281412 -0.00833009 0)
(-0.00153725 -0.00537115 0)
(-0.00336269 -0.00739341 0)
(-0.00334261 -0.00161366 0)
(-7.11703e-05 -0.000283792 0)
(-0.000677684 -0.00061578 0)
(-0.00179359 0.00388563 0)
(-0.000726894 0.00168368 0)
(0.000103674 0.000906427 0)
(0.000892257 0.000873843 0)
(0.00108743 -4.24845e-05 0)
(-0.000139944 -0.00165606 0)
(-0.00203207 -0.000583834 0)
(-0.00321938 0.00139291 0)
(-0.00278406 0.00453336 0)
(-0.00110057 0.00528594 0)
(-4.65359e-05 0.00417593 0)
(0.000899855 0.00287308 0)
(0.0010785 -0.000121666 0)
(0.00115957 -0.00166536 0)
(0.000354034 -0.00526402 0)
(-0.00097918 -0.00532872 0)
(-0.00200433 -0.00560493 0)
(-0.00251934 -0.00238145 0)
(-0.00154451 -0.000646498 0)
(-0.00161609 -6.35353e-05 0)
(-0.00141659 0.00208065 0)
(-0.000210607 0.00148982 0)
(9.24154e-05 0.000466037 0)
(0.000586189 0.000550806 0)
(0.000634048 0.00013481 0)
(-0.000111963 -0.000295035 0)
(-0.00117047 0.000495753 0)
(-0.00174847 0.00185315 0)
(-0.00142091 0.00348508 0)
(-0.000429574 0.00393224 0)
(0.000432469 0.00338372 0)
(0.00126405 0.00222704 0)
(0.00158018 1.0909e-05 0)
(0.00141734 -0.00174557 0)
(0.000619034 -0.00390727 0)
(-0.000429713 -0.00428688 0)
(-0.00132983 -0.00432129 0)
(-0.00194914 -0.00269125 0)
(-0.00176159 -0.00114676 0)
(-0.00158961 3.01562e-06 0)
(-0.00106434 0.00121145 0)
(-0.00013892 0.000809545 0)
(5.46829e-05 0.000202377 0)
(0.000364905 0.000327601 0)
(0.0004126 0.000301922 0)
(6.43616e-05 0.000361894 0)
(-0.000416698 0.00100637 0)
(-0.000640979 0.00194763 0)
(-0.000409647 0.00288513 0)
(0.000166378 0.00315309 0)
(0.000753794 0.00272402 0)
(0.00129638 0.00171405 0)
(0.00150899 5.12653e-05 0)
(0.00132691 -0.00149161 0)
(0.000714334 -0.00294367 0)
(-9.1415e-05 -0.00346055 0)
(-0.000835688 -0.00345354 0)
(-0.00137479 -0.00249118 0)
(-0.0014194 -0.00130862 0)
(-0.00121417 -0.000293854 0)
(-0.000722542 0.000452968 0)
(-8.05646e-05 0.000340098 0)
(4.11553e-05 3.09184e-05 0)
(0.000249759 0.000139603 0)
(0.000339054 0.000308672 0)
(0.000255852 0.000599915 0)
(0.000104708 0.00118208 0)
(6.92152e-05 0.00189467 0)
(0.000237214 0.00251645 0)
(0.000550485 0.00269077 0)
(0.000866485 0.00232584 0)
(0.00113046 0.00143825 0)
(0.00121133 0.000100634 0)
(0.00102548 -0.00119255 0)
(0.000611901 -0.00229122 0)
(6.76702e-05 -0.00282793 0)
(-0.000440091 -0.00285874 0)
(-0.000807162 -0.00224546 0)
(-0.000890838 -0.00137432 0)
(-0.000745786 -0.000579463 0)
(-0.000414486 -4.50869e-05 0)
(-4.05015e-05 5.46561e-05 0)
(3.32393e-05 -0.000120041 0)
(0.000188435 3.893e-05 0)
(0.00032901 0.000231321 0)
(0.000384567 0.000628485 0)
(0.000396519 0.00119923 0)
(0.000445763 0.00182543 0)
(0.000565776 0.00232949 0)
(0.000728216 0.00247738 0)
(0.000866799 0.00217445 0)
(0.000933358 0.00141265 0)
(0.000867355 0.000243714 0)
(0.000493653 -0.000908307 0)
(0.000292107 -0.00185448 0)
(6.50362e-05 -0.0024231 0)
(-0.000129986 -0.00251022 0)
(-0.000265979 -0.00207898 0)
(-0.000304522 -0.00139607 0)
(-0.00025519 -0.000748939 0)
(-0.000140393 -0.000308533 0)
(-1.40201e-05 -9.71424e-05 0)
)
;

boundaryField
{
    top
    {
        type            pressureInletOutletVelocity;
        value           nonuniform List<vector> 
20
(
(0 -0.000120041 0)
(0 3.893e-05 0)
(0.00032901 0.000231321 0)
(0.000384567 0.000628485 0)
(0.000396519 0.00119923 0)
(0.000445763 0.00182543 0)
(0.000565776 0.00232949 0)
(0.000728216 0.00247738 0)
(0.000866799 0.00217445 0)
(0.000933358 0.00141265 0)
(0.000867355 0.000243714 0)
(0 -0.000908307 0)
(0 -0.00185448 0)
(0 -0.0024231 0)
(0 -0.00251022 0)
(0 -0.00207898 0)
(0 -0.00139607 0)
(0 -0.000748939 0)
(0 -0.000308533 0)
(0 -9.71424e-05 0)
)
;
    }
    left
    {
        type            noSlip;
    }
    right
    {
        type            noSlip;
    }
    bottom
    {
        type            noSlip;
    }
    front
    {
        type            empty;
    }
    back
    {
        type            empty;
    }
    frontAndBack
    {
        type            empty;
    }
}


// ************************************************************************* //
