/*--------------------------------*- C++ -*----------------------------------*\
  =========                 |
  \\      /  F ield         | OpenFOAM: The Open Source CFD Toolbox
   \\    /   O peration     | Website:  https://openfoam.org
    \\  /    A nd           | Version:  10
     \\/     M anipulation  |
\*---------------------------------------------------------------------------*/
FoamFile
{
    format      ascii;
    class       surfaceScalarField;
    location    "0.08";
    object      alphaPhi.water;
}
// * * * * * * * * * * * * * * * * * * * * * * * * * * * * * * * * * * * * * //

dimensions      [0 3 -1 0 0 0 0];

internalField   nonuniform List<scalar> 
1540
(
6.37305e-14
-6.38039e-14
2.43785e-13
-1.80142e-13
5.34201e-13
-2.90505e-13
8.13344e-13
-2.79233e-13
9.7204e-13
-1.58772e-13
9.98373e-13
-2.64238e-14
8.51475e-13
1.46809e-13
6.02742e-13
2.48646e-13
2.48087e-13
3.54566e-13
-1.3767e-13
3.85666e-13
-5.0128e-13
3.63516e-13
-8.22491e-13
3.21124e-13
-1.0573e-12
2.34718e-13
-1.18359e-12
1.26205e-13
-1.08999e-12
-9.36825e-14
-8.45561e-13
-2.44515e-13
-5.14718e-13
-3.30927e-13
-2.62949e-13
-2.5186e-13
-4.38176e-14
-2.19227e-13
-4.38659e-14
2.39553e-13
-3.03447e-13
7.49046e-13
-6.89725e-13
1.36604e-12
-9.07602e-13
1.90573e-12
-8.1901e-13
2.24952e-12
-5.02666e-13
2.29685e-12
-7.38505e-14
1.92512e-12
5.18447e-13
1.33074e-12
8.42924e-13
5.17814e-13
1.1674e-12
-3.41747e-13
1.24513e-12
-1.18428e-12
1.20596e-12
-1.92838e-12
1.06513e-12
-2.47219e-12
7.78428e-13
-2.66584e-12
3.19765e-13
-2.51205e-12
-2.47577e-13
-2.07741e-12
-6.79251e-13
-1.47048e-12
-9.37951e-13
-7.65403e-13
-9.57031e-13
-2.19247e-13
-7.65482e-13
-2.63164e-13
3.68496e-13
-6.72025e-13
1.14524e-12
-1.46657e-12
1.94529e-12
-1.70776e-12
2.64652e-12
-1.52033e-12
3.04532e-12
-9.01555e-13
3.02115e-12
-4.97823e-14
2.66479e-12
8.74704e-13
1.83353e-12
1.67408e-12
7.79367e-13
2.22146e-12
-4.33762e-13
2.45816e-12
-1.63275e-12
2.40484e-12
-2.6454e-12
2.07768e-12
-3.35195e-12
1.48488e-12
-3.60247e-12
5.70203e-13
-3.48619e-12
-3.63966e-13
-2.93012e-12
-1.23542e-12
-2.07653e-12
-1.79164e-12
-1.13187e-12
-1.90178e-12
-3.47547e-13
-1.5499e-12
-6.10764e-13
4.95798e-13
-1.16792e-12
1.38949e-12
-2.36035e-12
2.33748e-12
-2.65585e-12
3.1533e-12
-2.33625e-12
3.62539e-12
-1.37374e-12
3.62167e-12
-4.61588e-14
3.09184e-12
1.40444e-12
2.14516e-12
2.62067e-12
8.89831e-13
3.47669e-12
-5.22712e-13
3.8706e-12
-1.91042e-12
3.79245e-12
-3.08267e-12
3.24983e-12
-3.85956e-12
2.26167e-12
-4.26983e-12
9.80368e-13
-4.13857e-12
-4.95323e-13
-3.50256e-12
-1.8715e-12
-2.49006e-12
-2.80423e-12
-1.34539e-12
-3.04655e-12
-4.25682e-13
-2.46972e-12
-1.0365e-12
4.11673e-13
-1.57968e-12
1.3651e-12
-3.31389e-12
2.50367e-12
-3.79454e-12
3.46051e-12
-3.29319e-12
4.00434e-12
-1.91767e-12
4.00235e-12
-4.42677e-14
3.37239e-12
2.03431e-12
2.32879e-12
3.66418e-12
9.3506e-13
4.87032e-12
-6.15217e-13
5.42078e-12
-2.14639e-12
5.32353e-12
-3.4747e-12
4.57804e-12
-4.4179e-12
3.20478e-12
-4.88176e-12
1.44412e-12
-4.72048e-12
-6.56688e-13
-3.97896e-12
-2.61312e-12
-2.82245e-12
-3.96082e-12
-1.51379e-12
-4.35532e-12
-4.64459e-13
-3.51918e-12
-1.50101e-12
4.46744e-13
-2.02651e-12
1.47393e-12
-4.34117e-12
2.73427e-12
-5.055e-12
3.72576e-12
-4.28478e-12
4.25074e-12
-2.44275e-12
4.19015e-12
1.62327e-14
3.5612e-12
2.66317e-12
2.40734e-12
4.81794e-12
9.39741e-13
6.3378e-12
-6.99983e-13
7.06042e-12
-2.32793e-12
6.95138e-12
-3.76802e-12
6.01803e-12
-4.82722e-12
4.2639e-12
-5.40725e-12
2.02401e-12
-5.18511e-12
-8.7889e-13
-4.36016e-12
-3.43816e-12
-3.10914e-12
-5.21193e-12
-1.70965e-12
-5.7549e-12
-5.38511e-13
-4.69043e-12
-2.03958e-12
5.3218e-13
-2.55878e-12
1.64477e-12
-5.45385e-12
2.8829e-12
-6.29322e-12
3.89455e-12
-5.29651e-12
4.39235e-12
-2.94065e-12
4.27211e-12
1.36387e-13
3.60024e-12
3.33495e-12
2.39275e-12
6.02533e-12
9.47629e-13
7.78281e-12
-7.6748e-13
8.77544e-12
-2.47477e-12
8.65858e-12
-3.94083e-12
7.48399e-12
-5.1227e-12
5.44564e-12
-5.55379e-12
2.45499e-12
-5.41027e-12
-1.02246e-12
-4.5673e-12
-4.28121e-12
-3.27721e-12
-6.50211e-12
-1.84144e-12
-7.19075e-12
-5.76373e-13
-5.95561e-12
-2.616e-12
4.91253e-13
-3.05011e-12
1.68675e-12
-6.64944e-12
2.94148e-12
-7.54804e-12
3.96361e-12
-6.31873e-12
4.49304e-12
-3.47016e-12
4.40785e-12
2.21489e-13
3.72466e-12
4.01802e-12
2.67541e-12
7.07442e-12
1.03259e-12
9.42555e-12
-7.9798e-13
1.06059e-11
-2.59933e-12
1.04598e-11
-4.15011e-12
9.03469e-12
-5.2588e-12
6.55421e-12
-5.79823e-12
2.9943e-12
-5.46673e-12
-1.35404e-12
-4.59411e-12
-5.15391e-12
-3.29308e-12
-7.80322e-12
-1.81622e-12
-8.6677e-12
-5.86964e-13
-7.185e-12
-3.20301e-12
6.0414e-13
-3.65434e-12
1.66692e-12
-7.71231e-12
2.83429e-12
-8.7155e-12
3.83857e-12
-7.3231e-12
4.33479e-12
-3.9665e-12
4.34363e-12
2.12529e-13
3.79181e-12
4.5697e-12
2.64987e-12
8.21628e-12
1.04042e-12
1.10349e-11
-8.23654e-13
1.24699e-11
-2.61481e-12
1.22509e-11
-4.13736e-12
1.05572e-11
-5.08051e-12
7.49724e-12
-5.36308e-12
3.27677e-12
-5.19215e-12
-1.52508e-12
-4.35537e-12
-5.99081e-12
-3.16941e-12
-8.98937e-12
-1.81317e-12
-1.00241e-11
-5.27006e-13
-8.47125e-12
-3.73006e-12
4.56027e-13
-4.11043e-12
1.42293e-12
-8.67939e-12
2.40033e-12
-9.69301e-12
3.34225e-12
-8.26512e-12
4.02992e-12
-4.6543e-12
4.06699e-12
1.75335e-13
3.62883e-12
5.00777e-12
2.47451e-12
9.37051e-12
9.08729e-13
1.26007e-11
-7.81266e-13
1.41599e-11
-2.46113e-12
1.39307e-11
-3.88163e-12
1.19776e-11
-4.72222e-12
8.33774e-12
-4.91358e-12
3.46799e-12
-4.62679e-12
-1.81197e-12
-3.87234e-12
-6.74536e-12
-2.7993e-12
-1.00625e-11
-1.53024e-12
-1.12933e-11
-5.90073e-13
-9.41152e-12
-4.32018e-12
3.42574e-13
-4.45311e-12
1.09979e-12
-9.4367e-12
2.06224e-12
-1.06556e-11
2.92152e-12
-9.12452e-12
3.61158e-12
-5.34447e-12
3.72229e-12
6.45348e-14
3.17902e-12
5.55096e-12
2.07844e-12
1.0471e-11
7.14067e-13
1.39649e-11
-7.85536e-13
1.56593e-11
-2.21773e-12
1.53628e-11
-3.35818e-12
1.31179e-11
-4.09255e-12
9.07202e-12
-4.25498e-12
3.63033e-12
-3.87094e-12
-2.19613e-12
-3.1251e-12
-7.49128e-12
-2.21607e-12
-1.09716e-11
-1.26157e-12
-1.22478e-11
-3.98001e-13
-1.02752e-11
-4.71823e-12
3.60964e-13
-4.81418e-12
9.3292e-13
-1.00087e-11
1.77992e-12
-1.15027e-11
2.49065e-12
-9.83533e-12
2.92306e-12
-5.77697e-12
3.04218e-12
-5.46692e-14
2.54204e-12
6.05103e-12
1.64615e-12
1.13668e-11
4.34553e-13
1.51764e-11
-7.92192e-13
1.6886e-11
-1.92586e-12
1.64964e-11
-2.81836e-12
1.40103e-11
-3.40288e-12
9.65645e-12
-3.45726e-12
3.68463e-12
-3.03234e-12
-2.62112e-12
-2.39025e-12
-8.13349e-12
-1.55523e-12
-1.18067e-11
-8.39203e-13
-1.29639e-11
-1.86458e-13
-1.0928e-11
-4.90473e-12
2.38272e-13
-5.05253e-12
6.40148e-13
-1.04107e-11
1.10663e-12
-1.19693e-11
1.47466e-12
-1.02035e-11
1.7323e-12
-6.03469e-12
1.77687e-12
-9.93349e-14
1.51224e-12
6.31564e-12
7.4918e-13
1.21298e-11
-5.09746e-14
1.59765e-11
-8.55378e-13
1.76903e-11
-1.57272e-12
1.72137e-11
-2.13737e-12
1.45749e-11
-2.37361e-12
9.8926e-12
-2.39047e-12
3.70147e-12
-2.06194e-12
-2.94974e-12
-1.5287e-12
-8.6668e-12
-1.10032e-12
-1.22352e-11
-6.076e-13
-1.34567e-11
-1.97961e-13
-1.13377e-11
-5.10273e-12
2.95887e-14
-5.0822e-12
1.13697e-13
-1.04949e-11
1.34034e-13
-1.19897e-11
1.79585e-13
-1.02492e-11
2.5661e-13
-6.11181e-12
2.33228e-13
-7.60376e-14
-2.32272e-14
6.57201e-12
-2.96354e-13
1.24029e-11
-5.96689e-13
1.62767e-11
-9.62321e-13
1.80559e-11
-1.23674e-12
1.7488e-11
-1.37547e-12
1.47135e-11
-1.36484e-12
9.88197e-12
-1.17242e-12
3.50897e-12
-8.30413e-13
-3.29182e-12
-6.02585e-13
-8.8947e-12
-2.55405e-13
-1.25824e-11
-1.23275e-13
-1.3589e-11
-9.22017e-14
-1.13689e-11
-5.19496e-12
-1.37616e-13
-4.94465e-12
-4.13619e-13
-1.02189e-11
-8.25151e-13
-1.15783e-11
-1.07924e-12
-9.99514e-12
-1.33444e-12
-5.85668e-12
-1.3738e-12
-3.67605e-14
-1.39592e-12
6.59404e-12
-1.22632e-12
1.22333e-11
-1.14479e-12
1.61951e-11
-1.06048e-12
1.79714e-11
-8.83182e-13
1.73106e-11
-5.37172e-13
1.43675e-11
-1.46988e-13
9.49174e-12
2.11099e-13
3.15078e-12
4.18054e-13
-3.49885e-12
5.8777e-13
-9.06452e-12
5.53743e-13
-1.25485e-11
3.73394e-13
-1.34087e-11
1.28686e-13
-1.11243e-11
-5.06633e-12
-2.97113e-13
-4.64762e-12
-1.00002e-12
-9.51617e-12
-1.74179e-12
-1.08366e-11
-2.35438e-12
-9.38263e-12
-2.74394e-12
-5.46722e-12
-2.8269e-12
4.61331e-14
-2.66374e-12
6.43075e-12
-2.31246e-12
1.1882e-11
-1.75375e-12
1.56363e-11
-1.08559e-12
1.73032e-11
-4.12895e-13
1.66378e-11
2.85934e-13
1.36685e-11
9.69174e-13
8.80842e-12
1.50501e-12
2.61485e-12
1.8366e-12
-3.83049e-12
1.79767e-12
-9.02568e-12
1.39791e-12
-1.21488e-11
8.27029e-13
-1.2838e-11
2.86136e-13
-1.05835e-11
-4.78024e-12
-4.5295e-13
-4.19475e-12
-1.44398e-12
-8.52523e-12
-2.55073e-12
-9.72998e-12
-3.5339e-12
-8.39956e-12
-4.07493e-12
-4.92627e-12
-4.116e-12
8.71544e-14
-3.66965e-12
5.98428e-12
-3.01852e-12
1.12308e-11
-2.19122e-12
1.48091e-11
-1.05524e-12
1.61672e-11
8.6042e-14
1.54965e-11
1.14502e-12
1.26097e-11
2.22072e-12
7.73268e-12
2.99339e-12
1.84212e-12
3.14259e-12
-3.97978e-12
2.80851e-12
-8.69169e-12
2.1174e-12
-1.14578e-11
1.22173e-12
-1.19424e-11
3.92026e-13
-9.75391e-12
-4.38825e-12
-5.59331e-13
-3.6355e-12
-1.74032e-12
-7.34432e-12
-3.14313e-12
-8.32726e-12
-4.37764e-12
-7.16514e-12
-5.15833e-12
-4.14564e-12
-5.39413e-12
3.2291e-13
-4.8375e-12
5.42758e-12
-3.89726e-12
1.02905e-11
-2.60628e-12
1.35181e-11
-1.17086e-12
1.47318e-11
4.30236e-13
1.38955e-11
1.94135e-12
1.10985e-11
3.15318e-12
6.52077e-12
3.924e-12
1.07122e-12
4.02873e-12
-4.08457e-12
3.50437e-12
-8.16742e-12
2.58168e-12
-1.05352e-11
1.47576e-12
-1.08366e-11
4.76749e-13
-8.75499e-12
-3.91154e-12
-6.13143e-13
-3.02243e-12
-1.93136e-12
-6.02619e-12
-3.45465e-12
-6.80405e-12
-4.82891e-12
-5.79096e-12
-5.78939e-12
-3.18524e-12
-6.13727e-12
6.70731e-13
-5.7513e-12
5.04156e-12
-4.55512e-12
9.09419e-12
-2.96959e-12
1.19325e-11
-1.16412e-12
1.29263e-11
7.08536e-13
1.20228e-11
2.46996e-12
9.33698e-12
3.8007e-12
5.18996e-12
4.44411e-12
4.27749e-13
4.41802e-12
-4.05857e-12
3.79152e-12
-7.541e-12
2.75787e-12
-9.50163e-12
1.56141e-12
-9.64018e-12
5.05677e-13
-7.69934e-12
-3.40591e-12
-6.06398e-13
-2.4161e-12
-1.93743e-12
-4.69524e-12
-3.49303e-12
-5.24854e-12
-4.94205e-12
-4.34202e-12
-6.00317e-12
-2.12419e-12
-6.41115e-12
1.07863e-12
-6.03878e-12
4.66913e-12
-4.88766e-12
7.94301e-12
-3.15827e-12
1.02031e-11
-1.17208e-12
1.094e-11
8.4873e-13
1.00019e-11
2.6553e-12
7.53033e-12
3.93115e-12
3.91404e-12
4.52171e-12
-1.62876e-13
4.41427e-12
-3.9512e-12
3.73186e-12
-6.85866e-12
2.67927e-12
-8.44912e-12
1.49959e-12
-8.46058e-12
4.80673e-13
-6.68051e-12
-2.92527e-12
-5.519e-13
-1.86427e-12
-1.80881e-12
-3.4384e-12
-3.30925e-12
-3.74818e-12
-4.73773e-12
-2.91362e-12
-5.79159e-12
-1.0704e-12
-6.2219e-12
1.50886e-12
-5.88475e-12
4.33191e-12
-4.80159e-12
6.85977e-12
-3.13587e-12
8.53727e-12
-1.16757e-12
8.97166e-12
8.07619e-13
8.02663e-12
2.51142e-12
5.82646e-12
3.67979e-12
2.7456e-12
4.18642e-12
-6.69588e-13
4.04063e-12
-3.80549e-12
3.38326e-12
-6.20137e-12
2.39841e-12
-7.46434e-12
1.32483e-12
-7.38709e-12
4.18329e-13
-5.77409e-12
-2.50699e-12
-4.62856e-13
-1.40148e-12
-1.58243e-12
-2.3189e-12
-2.93679e-12
-2.3939e-12
-4.24207e-12
-1.60841e-12
-5.20512e-12
-1.07427e-13
-5.62746e-12
1.93112e-12
-5.34975e-12
4.05413e-12
-4.39569e-12
5.90564e-12
-2.89927e-12
7.04077e-12
-1.11939e-12
7.19171e-12
6.57747e-13
6.24942e-12
2.16587e-12
4.31827e-12
3.17772e-12
1.73367e-12
3.60786e-12
-1.0998e-12
3.44321e-12
-3.64091e-12
2.85716e-12
-5.6154e-12
1.98845e-12
-6.59571e-12
1.0792e-12
-6.47792e-12
3.32259e-13
-5.02723e-12
-2.17477e-12
-3.43065e-13
-1.05849e-12
-1.29167e-12
-1.37037e-12
-2.4216e-12
-1.26404e-12
-3.53572e-12
-4.94372e-13
-4.34428e-12
7.01059e-13
-4.74292e-12
2.32969e-12
-4.5237e-12
3.83483e-12
-3.74611e-12
5.12797e-12
-2.47301e-12
5.76761e-12
-9.66845e-13
5.68547e-12
5.2629e-13
4.75621e-12
1.78799e-12
3.05649e-12
2.61884e-12
9.02744e-13
2.97342e-12
-1.45446e-12
2.78568e-12
-3.45325e-12
2.29638e-12
-5.12618e-12
1.53957e-12
-5.83899e-12
8.30072e-13
-5.76851e-12
2.44847e-13
-4.44209e-12
-1.92997e-12
-1.9232e-13
-8.66237e-13
-9.79947e-13
-5.82823e-13
-1.80417e-12
-4.39897e-13
-2.6921e-12
3.93479e-13
-3.26769e-12
1.27656e-12
-3.66854e-12
2.73047e-12
-3.47967e-12
3.64588e-12
-2.90849e-12
4.55671e-12
-1.83779e-12
4.69683e-12
-6.1402e-13
4.46162e-12
5.72385e-13
3.56973e-12
1.55612e-12
2.07267e-12
2.22384e-12
2.3494e-13
2.51114e-12
-1.74185e-12
2.22925e-12
-3.17145e-12
1.83666e-12
-4.73367e-12
1.12145e-12
-5.12386e-12
6.05506e-13
-5.25265e-12
1.64834e-13
-4.00151e-12
-1.76518e-12
3.00387e-14
-8.96347e-13
-6.29748e-13
7.68832e-14
-1.20856e-12
1.38831e-13
-1.82326e-12
1.00809e-12
-1.96225e-12
1.41547e-12
-2.43657e-12
3.2047e-12
-2.20094e-12
3.41015e-12
-1.92256e-12
4.27825e-12
-8.91105e-13
3.66529e-12
1.03524e-13
3.4669e-12
9.82007e-13
2.69115e-12
1.68904e-12
1.36555e-12
2.02739e-12
-1.03495e-13
2.34976e-12
-2.06431e-12
1.88576e-12
-2.70754e-12
1.59212e-12
-4.44012e-12
8.11915e-13
-4.34375e-12
4.67483e-13
-4.90832e-12
1.28081e-13
-3.6622e-12
-1.63715e-12
3.75892e-13
-1.27231e-12
-2.11247e-13
6.63941e-13
-5.26016e-13
4.53516e-13
-8.11959e-13
1.29395e-12
-1.93846e-13
7.97274e-13
-9.265e-13
3.93727e-12
-7.07976e-13
3.19154e-12
-8.18689e-13
4.38888e-12
3.00334e-13
2.54617e-12
1.19645e-12
2.57069e-12
1.59484e-12
2.29267e-12
2.00494e-12
9.55363e-13
2.40778e-12
-5.0643e-13
2.97201e-12
-2.62862e-12
2.03728e-12
-1.7729e-12
1.73582e-12
-4.13875e-12
6.55367e-13
-3.2634e-12
4.45082e-13
-4.69813e-12
2.13058e-13
-3.43028e-12
-1.42414e-12
1.05348e-12
-2.32587e-12
2.01032e-13
1.51631e-12
7.34935e-14
5.80975e-13
4.55106e-13
9.12252e-13
1.92249e-12
-6.70192e-13
1.42021e-12
4.43946e-12
8.77044e-13
3.73462e-12
5.39904e-13
4.72592e-12
2.21218e-12
8.73805e-13
3.31231e-12
1.47048e-12
2.81038e-12
2.79451e-12
2.82457e-12
9.41088e-13
2.88968e-12
-5.71625e-13
3.99772e-12
-3.73675e-12
2.8077e-12
-5.82972e-13
1.87149e-12
-3.20262e-12
4.75469e-13
-1.86746e-12
4.91109e-13
-4.71386e-12
4.16338e-13
-3.3556e-12
-1.00784e-12
1.8651e-12
-4.19103e-12
8.07608e-13
2.57374e-12
2.74887e-13
1.11363e-12
1.86243e-12
-6.75354e-13
5.27441e-12
-4.08224e-12
3.53595e-12
6.17784e-12
2.33504e-12
4.93546e-12
1.44009e-12
5.6208e-12
3.79398e-12
-1.48015e-12
5.43009e-12
-1.65703e-13
3.59427e-12
4.63026e-12
2.70777e-12
1.82752e-12
3.14014e-12
-1.00407e-12
5.26041e-12
-5.85708e-12
4.55782e-12
1.19516e-13
1.9515e-12
-5.96342e-13
6.46948e-13
-5.62995e-13
1.44419e-12
-5.51117e-12
1.28784e-12
-3.19931e-12
2.79978e-13
5.20738e-12
-9.40003e-12
1.22325e-12
6.55785e-12
3.32685e-13
2.00411e-12
2.94771e-12
-3.29086e-12
4.6179e-12
-5.75287e-12
4.58809e-12
6.20324e-12
1.72511e-12
7.79834e-12
-8.15742e-13
8.15882e-12
1.98315e-12
-4.27947e-12
5.05634e-12
-3.23919e-12
2.55736e-12
7.12917e-12
1.11758e-12
3.2672e-12
2.7626e-12
-2.64952e-12
4.27448e-12
-7.36964e-12
3.20779e-12
1.15584e-12
2.069e-12
5.42379e-13
-1.62969e-13
1.65197e-12
-4.09125e-13
-5.26501e-12
3.34094e-13
-3.94267e-12
6.14034e-13
1.27356e-11
-1.19634e-11
-7.45967e-13
1.13431e-11
-1.06416e-11
6.92466e-12
-1.30868e-12
-6.97555e-12
4.62274e-12
-6.04919e-12
7.15131e-12
1.70412e-12
-3.88267e-12
1.05205e-11
-1.42851e-11
1.0299e-11
-5.76668e-12
-6.77468e-12
6.61486e-12
-8.5689e-12
-2.98843e-12
9.23329e-12
-1.37106e-11
7.97156e-12
-5.96475e-12
-5.61176e-12
1.92711e-12
-7.80897e-12
3.81421e-12
-4.67717e-13
-6.40397e-13
2.90628e-12
-5.73181e-12
3.84363e-12
-1.68672e-12
-4.71084e-12
6.43487e-12
-6.47985e-12
4.08677e-12
-3.19217e-13
-1.41695e-14
-4.11202e-13
0
-1.58698e-12
0
2.57124e-13
-8.52412e-14
-2.66505e-12
0
-2.11833e-13
-1.02548e-13
-9.23965e-13
0
-6.25957e-13
0
-1.30709e-12
-7.92536e-14
-6.55796e-13
-9.616e-15
-1.49992e-12
0
-2.1769e-12
0
4.70466e-13
-5.2996e-13
-1.41051e-12
-5.36755e-14
-3.77054e-13
-5.48929e-13
-6.69505e-13
0
4.64508e-13
-7.46762e-14
-1.21867e-12
0
1.04508e-12
-2.86964e-14
0
-1.01387e-15
-1.83018e-15
-2.7517e-14
0
-1.14912e-14
0
-1.54719e-14
-1.30683e-14
-1.0502e-14
-1.32957e-15
1.30783e-14
-5.67728e-14
4.44828e-15
0
4.12064e-14
-2.02639e-14
1.93827e-15
0
2.21863e-16
0
-3.21647e-14
0
-1.00212e-14
0
-4.32596e-15
-9.21381e-15
-1.20176e-14
-1.31333e-15
1.33791e-14
-5.53339e-14
-8.12084e-15
0
1.19224e-14
-3.78095e-14
7.18874e-15
-1.05149e-15
6.60727e-16
0
0
-5.1896e-15
5.65976e-16
-1.04009e-15
0
-2.46827e-14
0
-1.32664e-15
-4.44281e-17
3.04994e-15
-3.04942e-18
2.1806e-14
-6.59431e-17
1.647e-15
0
2.72832e-15
0
8.19588e-17
-2.38907e-16
-3.10605e-16
7.51758e-16
-5.67408e-16
0
-1.73919e-14
0
-1.56876e-16
-2.47086e-17
4.28525e-15
-1.39169e-18
1.07882e-14
-5.27245e-17
2.70436e-16
0
-6.0657e-16
-2.87295e-17
0
-7.32386e-19
8.37855e-15
-2.89832e-17
0
-6.83473e-18
0
-1.03869e-17
0
3.35402e-17
0
1.72707e-19
-2.01759e-18
6.43704e-21
-8.97484e-20
-4.97969e-17
-7.09679e-18
3.27998e-17
0
2.17997e-18
0
-3.88749e-17
0
-3.81847e-17
0
-2.32139e-18
0
1.32199e-17
0
8.93956e-20
-3.13406e-19
-1.92017e-19
-3.46e-20
-3.79125e-17
-3.53753e-18
1.95462e-17
0
2.3315e-20
-8.71448e-19
-1.59647e-19
-9.41209e-21
-2.08077e-17
0
0
1.6891e-19
0
8.38399e-19
0
4.18145e-19
0
6.89961e-19
-2.67859e-23
-2.94327e-19
-1.72204e-23
-4.68999e-19
-2.23107e-23
-7.92463e-19
0
-1.68294e-19
0
-8.70626e-19
0
-3.8677e-19
0
4.63636e-19
0
8.3709e-20
0
2.67496e-20
-8.88822e-21
-3.34789e-19
-1.04722e-22
-2.05117e-19
-3.43106e-23
-4.6979e-20
0
-4.97344e-22
-2.58685e-23
-2.72773e-19
-4.1756e-23
-2.21065e-19
3.80944e-20
0
1.20518e-21
0
9.17824e-21
0
2.43429e-21
0
1.4617e-23
-3.84598e-23
-2.19387e-24
-5.38195e-25
-1.8737e-21
-3.17231e-24
-7.07211e-21
0
-3.15927e-21
0
-6.88479e-21
0
-1.95649e-21
0
1.21372e-20
0
2.68361e-21
8.89802e-24
4.79678e-22
-2.09455e-22
-3.18484e-24
-3.18961e-23
-3.30345e-23
-3.60496e-23
-9.85314e-24
-9.89385e-24
-1.30365e-23
-1.9938e-22
-2.57709e-22
-1.82429e-23
-1.19794e-21
0
0
4.15744e-24
2.21583e-26
3.85425e-23
9.00246e-26
3.915e-23
3.9625e-25
1.71172e-23
-9.86945e-26
-1.03086e-26
-1.52755e-26
-3.3558e-24
-4.19651e-26
-6.39667e-23
9.43945e-26
-2.48593e-23
4.91062e-25
-2.83951e-23
3.38535e-24
7.2051e-24
5.64552e-24
1.82354e-22
1.38004e-23
2.96276e-22
2.77741e-23
6.63767e-23
-1.92414e-23
4.82223e-25
-1.8854e-23
-6.04073e-24
-1.89026e-23
-5.98737e-23
-9.13314e-24
-9.6345e-24
-1.75451e-23
-1.0298e-24
-3.92436e-24
-2.48308e-24
-1.93279e-27
1.68951e-25
6.00139e-27
6.31344e-29
1.21544e-25
1.31057e-27
2.21736e-25
7.11277e-28
1.31508e-26
-3.68098e-28
-3.98604e-28
-8.32961e-29
-2.29907e-25
-4.54507e-29
-2.59598e-25
4.62371e-27
-9.62487e-25
2.37019e-26
-7.99725e-25
3.97921e-25
4.32997e-25
1.09067e-24
6.0358e-24
2.66497e-24
1.91527e-23
3.04339e-24
1.79093e-23
-2.15336e-24
2.19201e-24
-4.2088e-24
-2.25042e-24
-1.70209e-24
-5.29771e-24
-1.5633e-24
-2.35913e-24
-1.53848e-24
-5.58267e-26
-2.98094e-25
-1.17853e-25
-1.2289e-26
5.7602e-27
2.49528e-29
2.30775e-29
9.20185e-28
1.80752e-29
7.70188e-28
1.52066e-30
4.65491e-29
-2.07439e-30
-3.69027e-31
-1.09488e-30
-5.8271e-29
-6.48413e-31
-2.10996e-27
3.27603e-30
-2.30002e-26
1.35961e-27
-5.23433e-26
2.29377e-26
1.00445e-25
2.27639e-25
9.78698e-25
6.71368e-25
2.37625e-24
5.97949e-25
2.20926e-24
-1.28065e-25
2.52723e-25
-1.99982e-25
-6.01198e-26
-7.7073e-26
-1.46525e-25
-6.46498e-26
-9.65605e-26
-4.24126e-26
-1.81901e-26
-1.19826e-26
-1.47417e-27
-2.09884e-27
-6.41429e-29
2.56352e-30
5.26186e-30
8.19218e-31
1.79146e-31
-2.44912e-33
-1.20632e-31
-3.01123e-30
-1.29639e-28
-1.82713e-27
9.23438e-27
6.92872e-26
1.10606e-25
3.65728e-26
3.82584e-27
-2.29425e-28
-1.07863e-27
-7.48865e-28
-2.51231e-28
-8.44587e-29
)
;

boundaryField
{
    top
    {
        type            calculated;
        value           nonuniform List<scalar> 
20
(
1.33665e-30
3.74092e-30
3.71245e-31
0
0
0
1.14147e-30
1.77623e-28
6.01047e-27
7.98365e-26
2.26639e-25
2.31467e-25
0
0
0
0
0
0
0
0
)
;
    }
    left
    {
        type            calculated;
        value           uniform 0;
    }
    right
    {
        type            calculated;
        value           uniform 0;
    }
    bottom
    {
        type            calculated;
        value           nonuniform List<scalar> 
20
(
0
0
0
0
-3.94425e-31
0
0
0
0
0
0
0
0
0
0
0
0
0
0
0
)
;
    }
    front
    {
        type            empty;
        value           nonuniform List<scalar> 0();
    }
    back
    {
        type            empty;
        value           nonuniform List<scalar> 0();
    }
    frontAndBack
    {
        type            empty;
        value           nonuniform List<scalar> 0();
    }
}


// ************************************************************************* //
