/*--------------------------------*- C++ -*----------------------------------*\
  =========                 |
  \\      /  F ield         | OpenFOAM: The Open Source CFD Toolbox
   \\    /   O peration     | Website:  https://openfoam.org
    \\  /    A nd           | Version:  10
     \\/     M anipulation  |
\*---------------------------------------------------------------------------*/
FoamFile
{
    format      ascii;
    class       volScalarField;
    location    "0.08";
    object      alpha.water;
}
// * * * * * * * * * * * * * * * * * * * * * * * * * * * * * * * * * * * * * //

dimensions      [0 0 0 0 0 0 0];

internalField   nonuniform List<scalar> 
800
(
0.999988
0.999987
0.999987
0.999986
0.999985
0.999986
0.999987
0.999987
0.999987
0.999987
0.999987
0.999987
0.999986
0.999986
0.999987
0.999987
0.999987
0.999984
0.999986
0.999993
0.999988
0.999986
0.999984
0.999984
0.999984
0.999984
0.999987
0.999985
0.999984
0.999986
0.999987
0.999985
0.999984
0.999984
0.999986
0.999987
0.999984
0.999984
0.999984
0.999993
0.999987
0.999984
0.999984
0.999984
0.999984
0.999984
0.999984
0.999984
0.999984
0.999984
0.999984
0.999984
0.999984
0.999984
0.999986
0.999984
0.999984
0.999984
0.999984
0.999993
0.999984
0.999984
0.999984
0.999984
0.999984
0.999984
0.999985
0.999984
0.999984
0.999984
0.999984
0.999984
0.999984
0.999988
0.999984
0.999984
0.999984
0.999984
0.999987
0.999993
0.999987
0.999988
0.999986
0.999984
0.999984
0.999984
0.999987
0.999984
0.999984
0.999984
0.999984
0.999984
0.999984
0.999989
0.999984
0.999984
0.999984
0.999984
0.999989
0.999994
0.999989
0.999989
0.999989
0.999984
0.999984
0.999984
0.999987
0.999989
0.999984
0.999984
0.999984
0.999984
0.999986
0.999989
0.999985
0.999984
0.999984
0.999984
0.999988
0.999994
0.999989
0.999987
0.999984
0.999984
0.999984
0.999984
0.999989
0.999989
0.999984
0.999984
0.999984
0.999985
0.999989
0.999989
0.999985
0.999984
0.999984
0.999984
0.999988
0.999994
0.999988
0.999984
0.999984
0.999984
0.999984
0.999986
0.99999
0.999989
0.999984
0.999984
0.999984
0.999984
0.999989
0.999989
0.999984
0.999984
0.999984
0.999984
0.999991
0.999994
0.999984
0.999984
0.999984
0.999985
0.99999
0.999993
0.99999
0.999984
0.999984
0.999984
0.999984
0.999984
0.999989
0.999989
0.999989
0.999984
0.999985
0.99999
0.99999
0.999994
0.999986
0.999985
0.999988
0.999993
0.999993
0.999993
0.999985
0.999984
0.999986
0.999988
0.999987
0.999988
0.999985
0.999988
0.999994
0.999994
0.999994
0.999994
0.999989
0.999994
0.999992
0.999994
0.999994
0.999993
0.999993
0.99999
0.999984
0.999984
0.999989
0.999989
0.999989
0.999989
0.999985
0.999985
0.999992
0.999994
0.999994
0.999989
0.999989
0.999995
0.999993
0.999994
0.999993
0.999988
0.999988
0.999988
0.999984
0.999984
0.999989
0.999989
0.999989
0.999989
0.999985
0.999985
0.999989
0.999991
0.999994
0.999989
0.999989
0.999996
0.999992
0.999994
0.999993
0.99999
0.999988
0.99999
0.999988
0.999984
0.999989
0.999989
0.999989
0.999986
0.999985
0.999989
0.999989
0.999989
0.999994
0.999989
0.999991
0.999996
0.999992
0.999994
0.999996
0.999996
0.999988
0.999991
0.999994
0.999985
0.999986
0.999989
0.999989
0.999985
0.999986
0.999994
0.99999
0.999991
0.999994
0.999995
0.999995
0.999996
0.999993
0.999993
0.999996
0.999996
0.99999
0.99999
0.999995
0.999989
0.999985
0.999987
0.999986
0.999985
0.999993
0.999994
0.99999
0.999994
0.999994
0.999997
0.999997
0.999997
0.999996
0.999995
0.999997
0.999995
0.999994
0.99999
0.999995
0.999993
0.999985
0.999985
0.999985
0.999985
0.999994
0.999994
0.99999
0.999995
0.999997
0.999997
0.999997
0.999998
0.999996
0.999998
0.999999
0.999998
0.999995
0.999991
0.999995
0.999996
0.999986
0.999985
0.999985
0.999992
0.999995
0.999994
0.999995
0.999997
0.999999
0.999999
0.999998
0.999999
0.999997
0.999998
0.999999
0.999999
0.999996
0.999993
0.999993
0.999997
0.999996
0.999991
0.999994
0.999998
0.999996
0.999994
0.999996
0.999998
0.999999
0.999999
0.999999
0.999999
0.999998
0.999999
0.999999
0.999999
0.999997
0.999996
0.999995
0.999997
0.999999
0.999998
0.999998
0.999998
0.999998
0.999997
0.999998
0.999999
1
1
1
1
0.999999
1
1
1
0.999999
0.999998
0.999999
0.999999
0.999999
0.999999
0.999999
0.999999
0.999999
0.999999
1
1
1
1
1
1
1
1
1
1
1
1
1
1
1
1
1
1
1
1
1
1
1
1
1
1
1
1
1
1
1
1
1
1
1
1
1
1
1
1
1
1
1
1
1
1
1
1
1
1
1
1
1
1
1
1
1
1
1
1
1
1
1
1
1
1
1
1
1
1
1
1
1
1
1
1
1
1
1
1
1
1
1
1
1
1
1
1
1
1
1
1
1
1
1
1
1
1
1
1
1
1
1
1
1
1
1
1
1
1
1
1
1
1
1
1
1
1
1
1
1
1
1
1
1
1
1
1
1
1
1
1
1
1
1
1
1
1
1
1
1
1
1
1
1
1
1
1
1
0.999999
1
0.999999
1
0.999999
1
1
1
1
0.999999
1
0.999992
1
0.999996
1
0.999999
1
0.999999
1
1
0.999997
0.999998
1
1
1
0.999999
1
1
1
0.999998
0.999997
1
1
1
0.999997
0.999999
1
0.8685
0.874132
0.876578
0.872208
0.870328
0.871794
0.874775
0.872155
0.866355
0.865559
0.870094
0.872104
0.868647
0.86717
0.870398
0.873504
0.870683
0.866282
0.865732
0.869586
0.13164
0.140281
0.137983
0.133843
0.123817
0.13321
0.13276
0.133269
0.123343
0.12705
0.133835
0.132488
0.126795
0.118928
0.127873
0.127868
0.128777
0.120098
0.126344
0.13209
4.17618e-05
0.000286894
0.000207014
0.000257359
5.7067e-05
0.000325015
0.000223519
0.000368495
3.88507e-05
3.67718e-05
0.000117074
0.000174068
8.43251e-05
7.08062e-05
0.000205361
0.000268031
0.000395167
5.79404e-05
0.000109889
8.84343e-05
4.15895e-05
0.00010782
1.93107e-05
0.000255911
4.78801e-05
0.000318329
4.00333e-05
0.000215374
4.13524e-05
3.66389e-05
2.61362e-05
1.05275e-05
0.000194018
7.13497e-05
0.000311395
3.30801e-05
0.000269203
4.52257e-05
0.000109365
7.80821e-06
1.21677e-06
9.56147e-08
1.69956e-07
9.32932e-10
2.30173e-10
9.32932e-10
2.48933e-07
2.26344e-07
6.69326e-07
1.6185e-06
4.26167e-07
9.35809e-08
4.12691e-10
9.18989e-11
4.12691e-10
1.89311e-07
2.36558e-10
6.35937e-11
2.36558e-10
1.27048e-07
1.15724e-08
1.85688e-08
1.70694e-09
2.2433e-08
2.45905e-10
6.28628e-08
3.47881e-09
9.31851e-08
1.78355e-08
3.07828e-08
1.42001e-08
1.5632e-09
2.29652e-09
8.10126e-11
3.58446e-08
2.19473e-09
2.42044e-08
6.55683e-11
1.08529e-08
3.36899e-09
5.87323e-11
7.44697e-11
9.96102e-12
8.12175e-13
1.1491e-14
5.12704e-13
1.42832e-11
2.32046e-10
2.50279e-10
1.55822e-10
2.22001e-10
1.4471e-10
7.03169e-11
1.02316e-12
8.20441e-13
7.48488e-13
1.63731e-12
1.51686e-12
3.38597e-11
1.50088e-11
1.5205e-13
1.90084e-13
1.74832e-12
1.54619e-12
1.03583e-14
1.98743e-15
4.9266e-13
4.27987e-12
1.40447e-12
1.0954e-12
6.05783e-12
1.38679e-11
8.20876e-12
9.19609e-13
7.82066e-13
7.32548e-13
1.16016e-11
1.35698e-12
7.93651e-14
4.9298e-14
2.35616e-16
1.3917e-15
1.42725e-14
4.75573e-15
3.86625e-16
1.97509e-15
3.39177e-14
2.50628e-14
1.83578e-13
2.12204e-13
4.35868e-13
1.12793e-12
1.82884e-12
9.16227e-13
9.05039e-13
6.93727e-13
1.48385e-12
2.6864e-13
9.37642e-15
2.94155e-14
9.69333e-18
1.62356e-16
1.29076e-16
3.19479e-17
4.0228e-18
3.10694e-18
1.52143e-16
2.31129e-15
1.56165e-14
5.12633e-14
1.37361e-13
2.67977e-13
3.64313e-13
1.84038e-13
5.85603e-14
6.82455e-14
7.54039e-14
2.16005e-14
3.64492e-15
8.22644e-16
1.91516e-18
1.78014e-18
5.40556e-19
1.91086e-19
6.69164e-20
6.71131e-20
2.07546e-19
1.74828e-17
4.66775e-16
5.69179e-15
1.81696e-14
3.42724e-14
2.20351e-14
7.6988e-15
2.23813e-15
1.99567e-15
1.48729e-15
5.87889e-16
2.26596e-16
1.69775e-16
)
;

boundaryField
{
    top
    {
        type            inletOutlet;
        inletValue      uniform 0;
        value           nonuniform List<scalar> 
20
(
1.91516e-18
1.78014e-18
5.40556e-19
0
0
0
2.07546e-19
1.74828e-17
4.66775e-16
5.69179e-15
1.81696e-14
3.42724e-14
0
0
0
0
0
0
0
0
)
;
    }
    left
    {
        type            zeroGradient;
    }
    right
    {
        type            zeroGradient;
    }
    bottom
    {
        type            zeroGradient;
    }
    front
    {
        type            empty;
    }
    back
    {
        type            empty;
    }
    frontAndBack
    {
        type            empty;
    }
}


// ************************************************************************* //
