/*--------------------------------*- C++ -*----------------------------------*\
  =========                 |
  \\      /  F ield         | OpenFOAM: The Open Source CFD Toolbox
   \\    /   O peration     | Website:  https://openfoam.org
    \\  /    A nd           | Version:  10
     \\/     M anipulation  |
\*---------------------------------------------------------------------------*/
FoamFile
{
    format      ascii;
    class       volScalarField;
    location    "0.08";
    object      p;
}
// * * * * * * * * * * * * * * * * * * * * * * * * * * * * * * * * * * * * * //

dimensions      [1 -1 -2 0 0 0 0];

internalField   nonuniform List<scalar> 
800
(
13.9341
13.9335
13.9336
13.9317
13.9274
13.9235
13.9203
13.9166
13.9131
13.9114
13.9109
13.9114
13.9125
13.9148
13.9191
13.9222
13.9233
13.9252
13.9223
13.9259
13.4414
13.4415
13.442
13.4404
13.4377
13.4337
13.4316
13.4271
13.4254
13.4234
13.4235
13.4226
13.4246
13.4271
13.4283
13.432
13.4314
13.4326
13.4311
13.4341
12.9507
12.9531
12.9525
12.9509
12.9484
12.9454
12.9431
12.9396
12.9371
12.9351
12.9342
12.9344
12.9356
12.9373
12.9394
12.9396
12.9412
12.9418
12.9411
12.9435
12.4649
12.4651
12.464
12.4627
12.4601
12.457
12.4543
12.4515
12.4491
12.4474
12.4464
12.4463
12.4466
12.451
12.4498
12.4511
12.4522
12.4525
12.4515
12.4539
11.9763
11.9793
11.9782
11.9756
11.9733
11.9702
11.9704
11.9643
11.9619
11.9603
11.9593
11.9589
11.9594
11.9666
11.9619
11.9636
11.9648
11.9649
11.9645
11.966
11.4935
11.496
11.497
11.4913
11.4888
11.4856
11.4838
11.4844
11.476
11.4743
11.4733
11.4727
11.4735
11.4805
11.4755
11.4778
11.4793
11.4797
11.4781
11.4798
11.0117
11.0112
11.0113
11.0094
11.0064
11.0032
11.0021
11.0003
10.9916
10.9902
10.9891
10.9885
10.9925
10.9939
10.992
10.9945
10.9961
10.9966
10.994
10.995
10.5313
10.5323
10.532
10.5296
10.5259
10.5207
10.5207
10.5175
10.5112
10.5086
10.5072
10.5068
10.5089
10.5109
10.5098
10.5132
10.515
10.5155
10.5124
10.5124
10.0566
10.0566
10.0553
10.0522
10.048
10.0479
10.0404
10.0363
10.0321
10.0289
10.0275
10.0273
10.0271
10.0284
10.0286
10.0339
10.0351
10.0323
10.0323
10.032
9.5801
9.58217
9.57955
9.57882
9.57669
9.57198
9.5645
9.56122
9.55393
9.55234
9.54935
9.54872
9.55108
9.549
9.55578
9.557
9.55834
9.55861
9.55839
9.55269
9.10812
9.10988
9.11031
9.1062
9.10344
9.09616
9.0937
9.08833
9.08099
9.07779
9.07536
9.0739
9.07597
9.07632
9.0761
9.08221
9.08192
9.08121
9.08163
9.07816
8.638
8.64
8.63661
8.63725
8.63133
8.62495
8.62351
8.61713
8.60957
8.60578
8.60298
8.60113
8.60288
8.6039
8.60139
8.60174
8.60584
8.60767
8.60612
8.60458
8.17112
8.17045
8.16758
8.16557
8.16342
8.15646
8.1499
8.14832
8.13949
8.13617
8.13302
8.13183
8.13072
8.12946
8.13015
8.13056
8.13145
8.13229
8.12929
8.12836
7.7056
7.70211
7.70203
7.69903
7.69667
7.69026
7.68713
7.67846
7.67374
7.66912
7.66549
7.66413
7.6606
7.66144
7.65845
7.65628
7.65471
7.65319
7.65213
7.6523
7.23785
7.23628
7.23429
7.23029
7.22821
7.22459
7.22213
7.21133
7.20889
7.20214
7.19887
7.19617
7.19256
7.19139
7.18795
7.1806
7.17903
7.17793
7.17685
7.17665
6.77173
6.76892
6.76666
6.76299
6.75895
6.75956
6.75586
6.74667
6.74354
6.73909
6.73377
6.72879
6.72274
6.71899
6.7145
6.70573
6.70278
6.70057
6.69991
6.70045
6.30651
6.30313
6.30012
6.29549
6.29099
6.29241
6.28637
6.27941
6.27688
6.27215
6.26535
6.25649
6.2494
6.24349
6.23523
6.22866
6.22471
6.22171
6.22068
6.22147
5.84059
5.83606
5.83207
5.82735
5.82223
5.82097
5.81564
5.80951
5.80182
5.79721
5.78933
5.78246
5.77349
5.76638
5.75629
5.74868
5.74352
5.74005
5.73879
5.73987
5.37384
5.36881
5.36361
5.35729
5.35133
5.34613
5.34081
5.3336
5.32684
5.31897
5.31098
5.30258
5.2929
5.28273
5.27315
5.26506
5.25932
5.25566
5.25436
5.25543
4.90734
4.9017
4.8948
4.88647
4.87796
4.86952
4.86112
4.85339
4.84528
4.83661
4.82743
4.81755
4.80672
4.7961
4.78616
4.77813
4.77214
4.76834
4.76704
4.76809
4.44174
4.4354
4.42658
4.41545
4.40328
4.39116
4.37955
4.36842
4.35793
4.34787
4.33786
4.32733
4.31617
4.30542
4.29594
4.28824
4.28226
4.27841
4.27708
4.27802
3.97818
3.97113
3.96013
3.9449
3.92777
3.91068
3.89454
3.87902
3.86512
3.85349
3.84343
3.83309
3.8219
3.81145
3.8028
3.79592
3.78999
3.78598
3.7848
3.78573
3.51784
3.51071
3.49753
3.4759
3.45141
3.42814
3.40687
3.38533
3.36667
3.35397
3.34581
3.33681
3.325
3.31455
3.30765
3.30256
3.29609
3.29117
3.29012
3.29204
3.06185
3.05691
3.04313
3.00982
2.97344
2.94347
2.91843
2.88774
2.8606
2.84841
2.84751
2.84208
2.82627
2.81338
2.81023
2.80954
2.80051
2.79171
2.7922
2.7988
2.60651
2.61241
2.60581
2.54514
2.48704
2.45333
2.43414
2.38601
2.33869
2.33052
2.352
2.35492
2.32052
2.30066
2.31108
2.32442
2.30598
2.28388
2.28902
2.3116
2.1355
2.20541
2.2208
2.08022
1.97635
1.95217
1.9773
1.88571
1.77766
1.78336
1.87727
1.9043
1.81315
1.76061
1.81437
1.86954
1.81888
1.74966
1.77151
1.84841
1.588
1.84835
1.91427
1.57835
1.31713
1.45818
1.62025
1.41475
1.08889
1.15196
1.46563
1.54545
1.25837
1.10947
1.29794
1.50535
1.34485
1.11629
1.19581
1.45206
0.786282
1.7152
2.01005
1.15853
0.488843
1.0085
1.61668
1.12217
0.213916
0.351368
1.30082
1.54417
0.712782
0.161243
0.871909
1.49233
0.98611
0.18663
0.466313
1.30984
-1.05504
2.22266
2.99572
0.166699
-1.83336
0.368364
2.61794
1.21964
-1.94603
-1.43247
1.86275
2.42286
-0.475675
-2.11074
0.21611
2.16285
0.727596
-1.86786
-0.895836
1.86116
-5.05852
4.81751
7.45619
-1.03712
-6.47874
-0.046663
6.60032
2.72643
-6.28063
-4.6852
4.78002
6.42554
-2.11846
-6.69853
0.4123
6.42245
1.89127
-5.84699
-3.09962
5.19855
-0.676757
0.832703
1.08374
-0.230767
-0.9623
0.0521891
0.969614
0.448273
-0.821635
-0.588628
0.84416
0.930005
-0.363491
-0.914981
0.0517509
0.871992
0.354591
-0.782298
-0.386905
0.804323
0.0382719
-0.0331155
-0.0433791
0.0176409
0.0571306
0.0402056
-0.0173854
0.0133655
0.0447503
0.0179682
-0.0533085
-0.0564719
0.00383738
0.0427696
0.0306418
-0.018257
0.0244662
0.0451799
0.00987093
-0.0412303
0.0187318
-0.0104246
0.0111117
0.00795816
0.0136958
0.0607297
0.000693702
0.0204595
0.0160787
0.00614807
0.00200616
0.0194713
-0.0167268
-1.7492e-05
0.0867535
0.00793093
0.0345664
0.0142243
-0.00963458
0.0333811
0.0103749
0.00302807
0.00392111
0.000673675
0.00329873
-0.0047069
-0.00274818
-0.00378516
0.00411637
0.0109794
0.00875533
0.00762695
-0.000428197
-0.00662509
-0.00499333
-0.000212388
-0.00373709
0.00237358
0.00741944
0.0157186
0.00474768
0.00250047
0.0018215
0.00151959
0.00162765
-0.00138063
-0.00157907
-0.000865537
0.00301247
0.00576237
0.00501263
0.00347199
0.000755544
-0.00158661
-0.00235719
-0.00115435
-0.00118699
0.00202966
0.00416451
0.00591892
0.00210017
0.00164715
0.00133516
0.000963056
0.000738794
-0.000418131
-0.000354783
0.000165012
0.00189981
0.0032571
0.00319721
0.00230727
0.000677088
-0.000667906
-0.00111257
-0.000442368
-0.0002621
0.00113753
0.00210397
0.00290636
0.000927916
0.000896289
0.000860223
0.000596267
0.000373598
-4.85341e-05
7.60602e-05
0.000423441
0.00125273
0.0019499
0.00197406
0.00147875
0.000557066
-0.000231656
-0.000498494
-0.000181194
1.71772e-05
0.000645202
0.0011327
0.00148326
0.000384248
0.00046262
0.000508904
0.000383372
0.000240722
9.28139e-05
0.000193543
0.000405908
0.000816543
0.0011554
0.00117439
0.000914532
0.000429246
-8.61159e-06
-0.000182656
-6.33671e-05
7.8339e-05
0.000381056
0.000610512
0.000733754
0.000128614
0.000226491
0.00031045
0.000246176
0.000151346
0.000120731
0.000203773
0.000294639
0.000457442
0.000594826
0.000618764
0.00053789
0.000301332
4.78712e-05
-6.55512e-05
-2.57294e-05
5.49115e-05
0.000194998
0.000293055
0.000332465
-2.68816e-05
3.72637e-05
0.000133556
0.000137832
7.53163e-05
9.49194e-05
0.000120055
0.000104372
0.000108609
0.000124401
0.000151706
0.000203557
0.000162795
3.78743e-05
-1.59264e-05
-8.78124e-06
1.6455e-05
5.70576e-05
8.52887e-05
9.54312e-05
)
;

boundaryField
{
    top
    {
        type            calculated;
        value           nonuniform List<scalar> 
20
(
0
0
0
0
-1.43323e-08
0
0
0
0
0
0
0
0
-9.52728e-07
-2.21782e-06
-2.28393e-06
-1.71412e-06
-8.33785e-07
-1.93933e-07
-3.97501e-09
)
;
    }
    left
    {
        type            calculated;
        value           nonuniform List<scalar> 
40
(
13.9341
13.4414
12.9507
12.4649
11.9763
11.4935
11.0117
10.5313
10.0566
9.5801
9.10812
8.638
8.17112
7.7056
7.23785
6.77173
6.30651
5.84059
5.37384
4.90734
4.44174
3.97818
3.51784
3.06185
2.60651
2.1355
1.588
0.786282
-1.05504
-5.05852
-0.676757
0.0382719
0.0187318
0.0103749
0.00474768
0.00210017
0.000927916
0.000384248
0.000128614
-2.68816e-05
)
;
    }
    right
    {
        type            calculated;
        value           nonuniform List<scalar> 
40
(
13.9259
13.4341
12.9435
12.4539
11.966
11.4798
10.995
10.5124
10.032
9.55269
9.07816
8.60458
8.12836
7.6523
7.17665
6.70045
6.22147
5.73987
5.25543
4.76809
4.27802
3.78573
3.29204
2.7988
2.3116
1.84841
1.45206
1.30984
1.86116
5.19855
0.804323
-0.0412303
0.0333811
0.0157186
0.00591892
0.00290636
0.00148326
0.000733754
0.000332465
9.54312e-05
)
;
    }
    bottom
    {
        type            calculated;
        value           nonuniform List<scalar> 
20
(
14.1793
14.1787
14.1787
14.1768
14.1724
14.1684
14.1651
14.1613
14.1578
14.156
14.1555
14.1561
14.1572
14.1596
14.164
14.1672
14.1683
14.1703
14.1675
14.1711
)
;
    }
    front
    {
        type            empty;
    }
    back
    {
        type            empty;
    }
    frontAndBack
    {
        type            empty;
    }
}


// ************************************************************************* //
