/*--------------------------------*- C++ -*----------------------------------*\
  =========                 |
  \\      /  F ield         | OpenFOAM: The Open Source CFD Toolbox
   \\    /   O peration     | Website:  https://openfoam.org
    \\  /    A nd           | Version:  10
     \\/     M anipulation  |
\*---------------------------------------------------------------------------*/
FoamFile
{
    format      ascii;
    class       volScalarField;
    location    "0.08";
    object      p_rgh;
}
// * * * * * * * * * * * * * * * * * * * * * * * * * * * * * * * * * * * * * //

dimensions      [1 -1 -2 0 0 0 0];

internalField   nonuniform List<scalar> 
800
(
14.1793
14.1788
14.1789
14.177
14.1727
14.1688
14.1656
14.1619
14.1584
14.1566
14.1561
14.1567
14.1577
14.16
14.1643
14.1675
14.1685
14.1704
14.1676
14.1711
14.1771
14.1772
14.1777
14.1761
14.1734
14.1694
14.1673
14.1628
14.1612
14.1591
14.1592
14.1583
14.1603
14.1628
14.164
14.1678
14.1672
14.1683
14.1668
14.1699
14.1769
14.1793
14.1787
14.1771
14.1746
14.1717
14.1693
14.1658
14.1633
14.1613
14.1604
14.1606
14.1618
14.1635
14.1656
14.1658
14.1674
14.168
14.1673
14.1697
14.1816
14.1818
14.1807
14.1795
14.1769
14.1737
14.171
14.1682
14.1659
14.1641
14.1632
14.163
14.1633
14.1677
14.1665
14.1678
14.169
14.1692
14.1682
14.1706
14.1835
14.1865
14.1854
14.1828
14.1806
14.1774
14.1776
14.1715
14.1691
14.1675
14.1665
14.1662
14.1666
14.1739
14.1691
14.1708
14.172
14.1721
14.1717
14.1733
14.1912
14.1937
14.1947
14.189
14.1865
14.1833
14.1816
14.1821
14.1737
14.172
14.171
14.1704
14.1712
14.1783
14.1732
14.1755
14.177
14.1774
14.1758
14.1775
14.1999
14.1994
14.1995
14.1976
14.1946
14.1914
14.1904
14.1885
14.1798
14.1784
14.1773
14.1767
14.1807
14.1822
14.1802
14.1827
14.1843
14.1848
14.1822
14.1832
14.21
14.211
14.2107
14.2083
14.2046
14.1994
14.1994
14.1962
14.1899
14.1873
14.1859
14.1855
14.1876
14.1896
14.1885
14.1919
14.1937
14.1942
14.1911
14.1912
14.2258
14.2258
14.2245
14.2214
14.2172
14.2172
14.2096
14.2055
14.2013
14.1981
14.1967
14.1964
14.1964
14.1976
14.1978
14.2031
14.2043
14.2015
14.2015
14.2012
14.2398
14.2419
14.2392
14.2385
14.2364
14.2317
14.2242
14.2209
14.2136
14.212
14.209
14.2084
14.2108
14.2087
14.2155
14.2167
14.2181
14.2183
14.2181
14.2124
14.2583
14.2601
14.2605
14.2564
14.2537
14.2464
14.2439
14.2385
14.2312
14.228
14.2256
14.2241
14.2261
14.2265
14.2263
14.2324
14.2321
14.2314
14.2318
14.2284
14.2787
14.2807
14.2773
14.2779
14.272
14.2656
14.2642
14.2578
14.2503
14.2465
14.2437
14.2418
14.2435
14.2446
14.2421
14.2424
14.2466
14.2484
14.2468
14.2453
14.3023
14.3017
14.2988
14.2968
14.2946
14.2876
14.2811
14.2795
14.2707
14.2673
14.2642
14.263
14.2619
14.2606
14.2613
14.2617
14.2627
14.2635
14.2605
14.2596
14.3273
14.3238
14.3238
14.3208
14.3183
14.312
14.3088
14.3001
14.2954
14.2908
14.2872
14.2858
14.2823
14.2831
14.2801
14.278
14.2764
14.2749
14.2738
14.274
14.3501
14.3485
14.3465
14.3425
14.3404
14.3368
14.3343
14.3235
14.321
14.3143
14.311
14.3083
14.3048
14.3036
14.3001
14.2928
14.2912
14.2902
14.2891
14.2889
14.3744
14.3716
14.3694
14.3657
14.3616
14.3622
14.3586
14.3494
14.3462
14.3417
14.3364
14.3314
14.3254
14.3217
14.3172
14.3084
14.3055
14.3033
14.3026
14.3032
14.3997
14.3964
14.3934
14.3887
14.3842
14.3856
14.3796
14.3726
14.37
14.3653
14.3585
14.3497
14.3426
14.3367
14.3284
14.3219
14.318
14.315
14.3139
14.3147
14.4243
14.4198
14.4158
14.4111
14.4059
14.4047
14.3993
14.3932
14.3855
14.3809
14.373
14.3662
14.3572
14.3501
14.34
14.3324
14.3273
14.3238
14.3225
14.3236
14.4481
14.4431
14.4379
14.4315
14.4256
14.4203
14.415
14.4078
14.4011
14.3932
14.3852
14.3768
14.3671
14.3569
14.3474
14.3393
14.3336
14.3299
14.3286
14.3297
14.4721
14.4664
14.4595
14.4512
14.4427
14.4343
14.4259
14.4181
14.41
14.4014
14.3922
14.3823
14.3715
14.3608
14.3509
14.3429
14.3369
14.3331
14.3318
14.3328
14.497
14.4907
14.4818
14.4707
14.4585
14.4464
14.4348
14.4237
14.4132
14.4031
14.3931
14.3826
14.3714
14.3607
14.3512
14.3435
14.3375
14.3337
14.3323
14.3333
14.5239
14.5169
14.5059
14.4907
14.4735
14.4564
14.4403
14.4248
14.4109
14.3992
14.3892
14.3788
14.3677
14.3572
14.3486
14.3417
14.3357
14.3317
14.3306
14.3315
14.5541
14.547
14.5338
14.5122
14.4877
14.4644
14.4431
14.4216
14.4029
14.3902
14.3821
14.3731
14.3613
14.3508
14.3439
14.3388
14.3324
14.3274
14.3264
14.3283
14.5886
14.5837
14.5699
14.5366
14.5002
14.4702
14.4452
14.4145
14.3874
14.3752
14.3743
14.3688
14.353
14.3401
14.337
14.3363
14.3273
14.3185
14.319
14.3256
14.6238
14.6297
14.6231
14.5624
14.5043
14.4706
14.4514
14.4033
14.356
14.3478
14.3693
14.3722
14.3378
14.3179
14.3283
14.3417
14.3232
14.3011
14.3063
14.3289
14.6433
14.7132
14.7286
14.588
14.4841
14.4599
14.4851
14.3935
14.2854
14.2911
14.385
14.4121
14.3209
14.2684
14.3221
14.3773
14.3266
14.2574
14.2793
14.3562
14.5862
14.8466
14.9125
14.5766
14.3154
14.4564
14.6185
14.413
14.0871
14.1502
14.4639
14.5437
14.2566
14.1077
14.2962
14.5036
14.3431
14.1145
14.1941
14.4503
14.275
15.2039
15.4988
14.6473
13.9776
14.4972
15.1054
14.6109
13.7027
13.8401
14.7896
15.0329
14.2015
13.65
14.3606
14.9811
14.4748
13.6754
13.9551
14.7986
12.9242
16.2019
16.975
14.1459
12.1459
14.3476
16.5972
15.1989
12.0332
12.5468
15.842
16.4021
13.5035
11.8685
14.1954
16.1421
14.7068
12.1113
13.0834
15.8404
7.51036
17.4678
20.1418
11.5854
6.11656
12.5698
19.2599
15.3481
6.25725
7.84117
17.3719
19.0465
10.4525
5.85112
13.0086
19.0637
14.4917
6.68984
9.42925
17.7831
1.3056
2.9442
3.1609
1.78452
0.903148
2.05802
2.96871
2.45498
1.03672
1.32512
2.85932
2.92504
1.54646
0.8774
1.97782
2.79798
2.29416
1.02757
1.5163
2.7934
0.0543672
-0.0132364
-0.024733
0.037064
0.0734622
0.0606731
0.00151541
0.0345041
0.0608007
0.0339865
-0.0360507
-0.0383344
0.0205897
0.0593132
0.0492624
0.00133086
0.0460165
0.0615249
0.0270179
-0.0244145
0.0353353
0.0072337
0.0273604
0.0279749
0.0303996
0.0817404
0.0172725
0.0398306
0.0326785
0.0226728
0.0183636
0.0355803
0.00230429
0.01706
0.107654
0.024399
0.0547947
0.0308858
0.00804835
0.0494467
0.0268266
0.0194614
0.0203557
0.0171054
0.0197305
0.0117249
0.0136877
0.0126503
0.0205591
0.0274377
0.0251941
0.0240602
0.0160036
0.00980666
0.0114384
0.0162225
0.0126947
0.0188053
0.0238512
0.0321524
0.0216701
0.019423
0.0187438
0.0184422
0.0185499
0.0155427
0.0153432
0.0160583
0.019935
0.0226851
0.0219351
0.0203943
0.0176778
0.0153356
0.0145657
0.0157679
0.0157357
0.0189519
0.0210869
0.0228412
0.0195129
0.0190599
0.0187479
0.0183758
0.0181515
0.0169946
0.017058
0.0175778
0.0193126
0.0206699
0.02061
0.01972
0.0180898
0.0167448
0.0163002
0.0169704
0.0171506
0.0185503
0.0195167
0.0203191
0.0188312
0.0187995
0.0187635
0.0184995
0.0182768
0.0178547
0.0179793
0.0183267
0.019156
0.0198531
0.0198773
0.019382
0.0184603
0.0176716
0.0174048
0.0177221
0.0179204
0.0185485
0.019036
0.0193865
0.018778
0.0188564
0.0189027
0.0187771
0.0186345
0.0184866
0.0185873
0.0187997
0.0192103
0.0195491
0.0195681
0.0193083
0.018823
0.0183851
0.0182111
0.0183304
0.0184721
0.0187748
0.0190043
0.0191275
0.0190129
0.0191107
0.0191947
0.0191304
0.0190356
0.019005
0.019088
0.0191789
0.0193417
0.0194791
0.019503
0.0194221
0.0191856
0.0189321
0.0188187
0.0188585
0.0189392
0.0190792
0.0191773
0.0192167
0.0193479
0.019412
0.0195083
0.0195126
0.0194501
0.0194697
0.0194948
0.0194791
0.0194834
0.0194992
0.0195265
0.0195783
0.0195375
0.0194126
0.0193588
0.019366
0.0193912
0.0194318
0.01946
0.0194702
)
;

boundaryField
{
    top
    {
        type            prghTotalPressure;
        rho             rho;
        psi             none;
        gamma           1;
        p0              uniform 0;
        value           nonuniform List<scalar> 
20
(
0.01962
0.01962
0.01962
0.01962
0.01962
0.01962
0.01962
0.01962
0.01962
0.01962
0.01962
0.01962
0.01962
0.019619
0.0196178
0.0196177
0.0196183
0.0196192
0.0196198
0.01962
)
;
        rho             rho;
    }
    left
    {
        type            fixedFluxPressure;
        gradient        uniform 0;
        value           nonuniform List<scalar> 
40
(
14.1793
14.1771
14.1769
14.1816
14.1835
14.1912
14.1999
14.21
14.2258
14.2398
14.2583
14.2787
14.3023
14.3273
14.3501
14.3744
14.3997
14.4243
14.4481
14.4721
14.497
14.5239
14.5541
14.5886
14.6238
14.6433
14.5862
14.275
12.9242
7.51036
1.3056
0.0543672
0.0353353
0.0268266
0.0216701
0.0195129
0.0188312
0.018778
0.0190129
0.0193479
)
;
    }
    right
    {
        type            fixedFluxPressure;
        gradient        uniform 0;
        value           nonuniform List<scalar> 
40
(
14.1711
14.1699
14.1697
14.1706
14.1733
14.1775
14.1832
14.1912
14.2012
14.2124
14.2284
14.2453
14.2596
14.274
14.2889
14.3032
14.3147
14.3236
14.3297
14.3328
14.3333
14.3315
14.3283
14.3256
14.3289
14.3562
14.4503
14.7986
15.8404
17.7831
2.7934
-0.0244145
0.0494467
0.0321524
0.0228412
0.0203191
0.0193865
0.0191275
0.0192167
0.0194702
)
;
    }
    bottom
    {
        type            fixedFluxPressure;
        gradient        nonuniform List<scalar> 
20
(
-2.40057
-3.21557
-4.80977
-7.12524
-10.0694
-13.4852
-17.111
-20.5654
-23.3285
-24.8744
-24.849
-23.2617
-20.4799
-17.0364
-13.4377
-10.0521
-7.12753
-4.81854
-3.22592
-2.40859
)
;
        value           nonuniform List<scalar> 
20
(
14.1793
14.1787
14.1787
14.1768
14.1724
14.1684
14.1651
14.1613
14.1578
14.156
14.1555
14.1561
14.1572
14.1596
14.164
14.1672
14.1683
14.1703
14.1675
14.1711
)
;
    }
    front
    {
        type            empty;
    }
    back
    {
        type            empty;
    }
    frontAndBack
    {
        type            empty;
    }
}


// ************************************************************************* //
