/*--------------------------------*- C++ -*----------------------------------*\
  =========                 |
  \\      /  F ield         | OpenFOAM: The Open Source CFD Toolbox
   \\    /   O peration     | Website:  https://openfoam.org
    \\  /    A nd           | Version:  10
     \\/     M anipulation  |
\*---------------------------------------------------------------------------*/
FoamFile
{
    format      ascii;
    class       surfaceScalarField;
    location    "0.08";
    object      phi;
}
// * * * * * * * * * * * * * * * * * * * * * * * * * * * * * * * * * * * * * //

dimensions      [0 3 -1 0 0 0 0];

internalField   nonuniform List<scalar> 
1540
(
6.43926e-14
-6.41613e-14
2.45091e-13
-1.80433e-13
5.36109e-13
-2.90743e-13
8.1579e-13
-2.79406e-13
9.74923e-13
-1.58858e-13
1.00172e-12
-2.65241e-14
8.5528e-13
1.46716e-13
6.07008e-13
2.48547e-13
2.52754e-13
3.54529e-13
-1.32685e-13
3.85714e-13
-4.96072e-13
3.63663e-13
-8.17233e-13
3.21435e-13
-1.05225e-12
2.3529e-13
-1.17892e-12
1.26945e-13
-1.08582e-12
-9.28301e-14
-8.42083e-13
-2.4347e-13
-5.12042e-13
-3.29771e-13
-2.61212e-13
-2.5054e-13
-4.29392e-14
-2.17973e-13
-4.27885e-14
2.4029e-13
-3.04186e-13
7.50402e-13
-6.90248e-13
1.36783e-12
-9.07866e-13
1.90785e-12
-8.19123e-13
2.25205e-12
-5.02751e-13
2.29989e-12
-7.40559e-14
1.92869e-12
5.1822e-13
1.33502e-12
8.42517e-13
5.22795e-13
1.16706e-12
-3.3607e-13
1.24488e-12
-1.17805e-12
1.20595e-12
-1.9218e-12
1.06548e-12
-2.4656e-12
7.79398e-13
-2.65963e-12
3.21278e-13
-2.50643e-12
-2.45733e-13
-2.07271e-12
-6.76895e-13
-1.46698e-12
-9.35205e-13
-7.63105e-13
-9.54106e-13
-2.18129e-13
-7.62638e-13
-2.60763e-13
3.69196e-13
-6.73105e-13
1.14646e-12
-1.46721e-12
1.94672e-12
-1.70781e-12
2.64814e-12
-1.52023e-12
3.04723e-12
-9.0153e-13
3.02352e-12
-5.00291e-14
2.66787e-12
8.74177e-13
1.83746e-12
1.67325e-12
7.84251e-13
2.22058e-12
-4.2796e-13
2.45741e-12
-1.62618e-12
2.40448e-12
-2.63835e-12
2.07796e-12
-3.34473e-12
1.48609e-12
-3.59546e-12
5.72313e-13
-3.47995e-12
-3.60937e-13
-2.92488e-12
-1.23166e-12
-2.07255e-12
-1.78723e-12
-1.12929e-12
-1.89706e-12
-3.46302e-13
-1.54531e-12
-6.06911e-13
4.96484e-13
-1.16931e-12
1.39057e-12
-2.36098e-12
2.33868e-12
-2.65561e-12
3.15459e-12
-2.33583e-12
3.62694e-12
-1.37356e-12
3.62373e-12
-4.65128e-14
3.09474e-12
1.40348e-12
2.14905e-12
2.61925e-12
8.94816e-13
3.47513e-12
-5.16632e-13
3.86917e-12
-1.9034e-12
3.79156e-12
-3.07501e-12
3.24988e-12
-3.85161e-12
2.263e-12
-4.26217e-12
9.83182e-13
-4.13161e-12
-4.91189e-13
-3.49674e-12
-1.86622e-12
-2.48561e-12
-2.79805e-12
-1.34244e-12
-3.03992e-12
-4.24316e-13
-2.46313e-12
-1.03107e-12
4.12145e-13
-1.58118e-12
1.36595e-12
-3.31448e-12
2.50471e-12
-3.79405e-12
3.46168e-12
-3.29249e-12
4.00577e-12
-1.91734e-12
4.00434e-12
-4.47706e-14
3.3752e-12
2.03293e-12
2.3328e-12
3.66196e-12
9.40237e-13
4.86801e-12
-6.08805e-13
5.41852e-12
-2.13889e-12
5.32195e-12
-3.46648e-12
4.57778e-12
-4.40947e-12
3.2063e-12
-4.87359e-12
1.44761e-12
-4.71303e-12
-6.51445e-13
-3.97262e-12
-2.60633e-12
-2.81759e-12
-3.95276e-12
-1.51056e-12
-4.34664e-12
-4.62947e-13
-3.51043e-12
-1.49387e-12
4.47357e-13
-2.02826e-12
1.47494e-12
-4.34176e-12
2.73547e-12
-5.05427e-12
3.72712e-12
-4.28383e-12
4.25236e-12
-2.44227e-12
4.19213e-12
1.57712e-14
3.56407e-12
2.6613e-12
2.41131e-12
4.81502e-12
9.45054e-13
6.33457e-12
-6.93185e-13
7.05707e-12
-2.31988e-12
6.94896e-12
-3.75916e-12
6.01737e-12
-4.81818e-12
4.26562e-12
-5.3986e-12
2.02833e-12
-5.17705e-12
-8.72694e-13
-4.3533e-12
-3.42977e-12
-3.10395e-12
-5.20181e-12
-1.70627e-12
-5.74401e-12
-5.36909e-13
-4.67948e-12
-2.03062e-12
5.33096e-13
-2.56108e-12
1.64618e-12
-5.45454e-12
2.88475e-12
-6.29252e-12
3.89662e-12
-5.29539e-12
4.39462e-12
-2.93996e-12
4.27476e-12
1.35936e-13
3.60362e-12
3.33276e-12
2.39705e-12
6.0219e-12
9.53742e-13
7.77819e-12
-7.59931e-13
8.77105e-12
-2.46595e-12
8.65529e-12
-3.93098e-12
7.4827e-12
-5.11252e-12
5.44747e-12
-5.54376e-12
2.45987e-12
-5.40127e-12
-1.01489e-12
-4.5599e-12
-4.27084e-12
-3.27174e-12
-6.48967e-12
-1.83781e-12
-7.17763e-12
-5.7466e-13
-5.94232e-12
-2.60513e-12
4.92447e-13
-3.05325e-12
1.68899e-12
-6.65078e-12
2.94438e-12
-7.54761e-12
3.96708e-12
-6.31779e-12
4.49707e-12
-3.46964e-12
4.41268e-12
2.20637e-13
3.73011e-12
4.01563e-12
2.68185e-12
7.07047e-12
1.04025e-12
9.42009e-12
-7.89105e-13
1.06007e-11
-2.58954e-12
1.0456e-11
-4.13963e-12
9.03309e-12
-5.24802e-12
6.55616e-12
-5.78795e-12
3.00009e-12
-5.45751e-12
-1.34503e-12
-4.58641e-12
-5.14165e-12
-3.28758e-12
-7.78821e-12
-1.81268e-12
-8.65224e-12
-5.85207e-13
-7.16949e-12
-3.19019e-12
6.05459e-13
-3.65844e-12
1.66987e-12
-7.71489e-12
2.8382e-12
-8.71564e-12
3.84373e-12
-7.32301e-12
4.34079e-12
-3.96641e-12
4.35096e-12
2.10769e-13
3.80056e-12
4.56633e-12
2.65956e-12
8.21178e-12
1.05075e-12
1.10292e-11
-8.12766e-13
1.24645e-11
-2.60381e-12
1.22474e-11
-4.12616e-12
1.05557e-11
-5.06893e-12
7.49922e-12
-5.35213e-12
3.28359e-12
-5.18257e-12
-1.51431e-12
-4.34711e-12
-5.97682e-12
-3.1633e-12
-8.97172e-12
-1.80914e-12
-1.00061e-11
-5.24953e-13
-8.45338e-12
-3.715e-12
4.58102e-13
-4.11627e-12
1.42664e-12
-8.68314e-12
2.40565e-12
-9.69434e-12
3.34906e-12
-8.26613e-12
4.03852e-12
-4.65557e-12
4.07702e-12
1.72574e-13
3.64046e-12
5.00319e-12
2.48778e-12
9.36475e-12
9.21995e-13
1.25953e-11
-7.68204e-13
1.4155e-11
-2.4482e-12
1.39277e-11
-3.86954e-12
1.19774e-11
-4.71053e-12
8.34049e-12
-4.90244e-12
3.47579e-12
-4.61686e-12
-1.79961e-12
-3.86427e-12
-6.72912e-12
-2.79256e-12
-1.00432e-11
-1.52515e-12
-1.12732e-11
-5.879e-13
-9.39034e-12
-4.30276e-12
3.44751e-13
-4.46076e-12
1.10453e-12
-9.44264e-12
2.06965e-12
-1.06592e-11
2.9314e-12
-9.12759e-12
3.6234e-12
-5.34727e-12
3.73597e-12
6.02911e-14
3.19397e-12
5.54549e-12
2.09389e-12
1.04651e-11
7.29765e-13
1.39597e-11
-7.70319e-13
1.56554e-11
-2.20327e-12
1.53609e-11
-3.34452e-12
1.31189e-11
-4.08026e-12
9.07651e-12
-4.24382e-12
3.63963e-12
-3.86132e-12
-2.18182e-12
-3.11707e-12
-7.47309e-12
-2.20965e-12
-1.09503e-11
-1.25739e-12
-1.22252e-11
-3.95427e-13
-1.0252e-11
-4.69805e-12
3.64013e-13
-4.82452e-12
9.39556e-13
-1.00179e-11
1.79015e-12
-1.15095e-11
2.50385e-12
-9.841e-12
2.93881e-12
-5.78195e-12
3.06007e-12
-6.06859e-14
2.5607e-12
6.04514e-12
1.66542e-12
1.13607e-11
4.52876e-13
1.51725e-11
-7.74885e-13
1.68834e-11
-1.90987e-12
1.64962e-11
-2.80355e-12
1.40128e-11
-3.3901e-12
9.66334e-12
-3.44633e-12
3.69613e-12
-3.02303e-12
-2.60485e-12
-2.38278e-12
-8.11308e-12
-1.54956e-12
-1.17832e-11
-8.35687e-13
-1.29388e-11
-1.8473e-13
-1.09027e-11
-4.88264e-12
2.42193e-13
-5.06646e-12
6.49069e-13
-1.04245e-11
1.12e-12
-1.19801e-11
1.49154e-12
-1.02123e-11
1.75238e-12
-6.0425e-12
1.79867e-12
-1.06702e-13
1.53415e-12
6.30993e-12
7.70803e-13
1.21243e-11
-2.98852e-14
1.59735e-11
-8.35675e-13
1.76895e-11
-1.5551e-12
1.72159e-11
-2.12228e-12
1.45803e-11
-2.36062e-12
9.90195e-12
-2.37981e-12
3.71559e-12
-2.05342e-12
-2.93098e-12
-1.52187e-12
-8.64436e-12
-1.0948e-12
-1.221e-11
-6.0383e-13
-1.34295e-11
-1.96023e-13
-1.13102e-11
-5.07854e-12
3.44549e-14
-5.10068e-12
1.25115e-13
-1.05149e-11
1.50784e-13
-1.20055e-11
2.0106e-13
-1.02623e-11
2.82091e-13
-6.12327e-12
2.61024e-13
-8.53685e-14
6.45967e-15
6.56476e-12
-2.69036e-13
1.24001e-11
-5.71307e-13
1.6276e-11
-9.38772e-13
1.80572e-11
-1.21595e-12
1.74933e-11
-1.3574e-12
1.4722e-11
-1.35036e-12
9.89516e-12
-1.16092e-12
3.5264e-12
-8.21143e-13
-3.2705e-12
-5.95479e-13
-8.86978e-12
-2.49886e-13
-1.25554e-11
-1.18933e-13
-1.35602e-11
-8.97406e-14
-1.13392e-11
-5.16815e-12
-1.31474e-13
-4.96897e-12
-4.00325e-13
-1.02458e-11
-8.04801e-13
-1.16008e-11
-1.05296e-12
-1.00139e-11
-1.30478e-12
-5.87119e-12
-1.34158e-12
-4.83086e-14
-1.36298e-12
6.58642e-12
-1.19424e-12
1.22316e-11
-1.11386e-12
1.61959e-11
-1.03277e-12
1.79764e-11
-8.58909e-13
1.73197e-11
-5.16591e-13
1.43799e-11
-1.29533e-13
9.50835e-12
2.24944e-13
3.17217e-12
4.28723e-13
-3.47404e-12
5.96014e-13
-9.03683e-12
5.5967e-13
-1.25188e-11
3.77718e-13
-1.3378e-11
1.31351e-13
-1.10926e-11
-5.03669e-12
-2.89691e-13
-4.67905e-12
-9.83821e-13
-9.55142e-12
-1.71707e-12
-1.08673e-11
-2.32268e-12
-9.40801e-12
-2.70708e-12
-5.48654e-12
-2.78688e-12
3.17425e-14
-2.62487e-12
6.42465e-12
-2.27356e-12
1.18805e-11
-1.71743e-12
1.564e-11
-1.05303e-12
1.73122e-11
-3.84734e-13
1.66516e-11
3.10152e-13
1.36853e-11
9.88571e-13
8.83017e-12
1.52046e-12
2.64051e-12
1.84864e-12
-3.80199e-12
1.8072e-12
-8.99516e-12
1.40523e-12
-1.21166e-11
8.3211e-13
-1.28047e-11
2.88932e-13
-1.05492e-11
-4.74764e-12
-4.43903e-13
-4.23494e-12
-1.42416e-12
-8.57094e-12
-2.5208e-12
-9.77041e-12
-3.4956e-12
-8.43298e-12
-4.03018e-12
-4.95173e-12
-4.06947e-12
7.12644e-14
-3.62183e-12
5.97724e-12
-2.97265e-12
1.12316e-11
-2.14925e-12
1.48168e-11
-1.01775e-12
1.6181e-11
1.18592e-13
1.55155e-11
1.17095e-12
1.26332e-11
2.24233e-12
7.75902e-12
3.01099e-12
1.87207e-12
3.1567e-12
-3.94747e-12
2.81956e-12
-8.65781e-12
2.12593e-12
-1.14227e-11
1.22789e-12
-1.19064e-11
3.95321e-13
-9.71636e-12
-4.35221e-12
-5.481e-13
-3.68664e-12
-1.71594e-12
-7.40287e-12
-3.10677e-12
-8.37937e-12
-4.33147e-12
-7.20806e-12
-5.10565e-12
-4.17733e-12
-5.33796e-12
3.03794e-13
-4.78115e-12
5.42065e-12
-3.84408e-12
1.02947e-11
-2.5577e-12
1.35307e-11
-1.12781e-12
1.47513e-11
4.67314e-13
1.39206e-11
1.97249e-12
1.11282e-11
3.17818e-12
6.55353e-12
3.94461e-12
1.10585e-12
4.04545e-12
-4.04811e-12
3.51763e-12
-8.12978e-12
2.59184e-12
-1.04967e-11
1.48287e-12
-1.07972e-11
4.80529e-13
-8.71381e-12
-3.87157e-12
-5.99152e-13
-3.0873e-12
-1.90122e-12
-6.1006e-12
-3.40998e-12
-6.8704e-12
-4.77281e-12
-5.84501e-12
-5.72595e-12
-3.22399e-12
-6.07054e-12
6.48595e-13
-5.68475e-12
5.03506e-12
-4.49218e-12
9.10236e-12
-2.91299e-12
1.19517e-11
-1.11484e-12
1.29533e-11
7.50766e-13
1.20552e-11
2.50586e-12
9.3733e-12
3.83081e-12
5.22878e-12
4.46867e-12
4.68189e-13
4.43798e-12
-4.01722e-12
3.80745e-12
-7.49905e-12
2.76996e-12
-9.45904e-12
1.56964e-12
-9.59668e-12
5.09869e-13
-7.65382e-12
-3.36161e-12
-5.88869e-13
-2.49825e-12
-1.89963e-12
-4.78964e-12
-3.43712e-12
-5.33272e-12
-4.87268e-12
-4.40925e-12
-5.9258e-12
-2.17067e-12
-6.33079e-12
1.05377e-12
-5.96007e-12
4.66454e-12
-4.81433e-12
7.95682e-12
-3.09345e-12
1.0231e-11
-1.11651e-12
1.09766e-11
8.9633e-13
1.00426e-11
2.69623e-12
7.57359e-12
3.96573e-12
3.95948e-12
4.55015e-12
-1.16041e-13
4.43748e-12
-3.90437e-12
3.7506e-12
-6.81198e-12
2.6935e-12
-8.40175e-12
1.50894e-12
-8.41192e-12
4.85149e-13
-6.62984e-12
-2.87636e-12
-5.30069e-13
-1.96801e-12
-1.76087e-12
-3.55865e-12
-3.23758e-12
-3.85582e-12
-4.6497e-12
-2.99693e-12
-5.69545e-12
-1.12474e-12
-6.124e-12
1.48251e-12
-5.78991e-12
4.33064e-12
-4.71558e-12
6.88267e-12
-3.06261e-12
8.57822e-12
-1.10686e-12
9.02103e-12
8.59667e-13
8.07623e-12
2.55724e-12
5.87621e-12
3.71875e-12
2.79815e-12
4.21793e-12
-6.1503e-13
4.06642e-12
-3.75268e-12
3.40491e-12
-6.15028e-12
2.41513e-12
-7.41177e-12
1.33507e-12
-7.33166e-12
4.22618e-13
-5.71719e-12
-2.45364e-12
-4.36801e-13
-1.53104e-12
-1.52159e-12
-2.47369e-12
-2.84191e-12
-2.53531e-12
-4.12684e-12
-1.71182e-12
-5.08384e-12
-1.67564e-13
-5.50701e-12
1.90587e-12
-5.23339e-12
4.0572e-12
-4.29285e-12
5.94231e-12
-2.81806e-12
7.10361e-12
-1.05733e-12
7.26048e-12
7.11819e-13
6.30726e-12
2.21707e-12
4.37114e-12
3.22144e-12
1.79396e-12
3.64045e-12
-1.03386e-12
3.46988e-12
-3.58193e-12
2.88224e-12
-5.56246e-12
2.00906e-12
-6.53841e-12
1.08966e-12
-6.41207e-12
3.34736e-13
-4.96206e-12
-2.11881e-12
-3.17058e-13
-1.21383e-12
-1.21636e-12
-1.57421e-12
-2.29017e-12
-1.46132e-12
-3.37867e-12
-6.23132e-13
-4.19094e-12
6.44888e-13
-4.59595e-12
2.31105e-12
-4.37664e-12
3.83807e-12
-3.61772e-12
5.18358e-12
-2.38659e-12
5.87266e-12
-9.14102e-13
5.78818e-12
5.7723e-13
4.81611e-12
1.84905e-12
3.0995e-12
2.67013e-12
9.73064e-13
3.0017e-12
-1.36525e-12
2.8084e-12
-3.38845e-12
2.32738e-12
-5.08125e-12
1.56948e-12
-5.78031e-12
8.38508e-13
-5.6809e-12
2.39851e-13
-4.3632e-12
-1.87885e-12
-1.87357e-13
-1.02631e-12
-8.95797e-13
-8.65594e-13
-1.60647e-12
-7.50467e-13
-2.46529e-12
2.35878e-13
-3.08134e-12
1.26112e-12
-3.5e-12
2.7299e-12
-3.28352e-12
3.62177e-12
-2.73e-12
4.63024e-12
-1.75507e-12
4.89792e-12
-6.01569e-13
4.63486e-12
6.08063e-13
3.60667e-12
1.64809e-12
2.05966e-12
2.29294e-12
3.284e-13
2.51744e-12
-1.58955e-12
2.23352e-12
-3.10434e-12
1.88272e-12
-4.73025e-12
1.17964e-12
-5.07704e-12
6.03785e-13
-5.10484e-12
1.31989e-13
-3.8912e-12
-1.74676e-12
-8.87077e-14
-9.37438e-13
-5.77312e-13
-3.76807e-13
-8.41271e-13
-4.8632e-13
-1.45142e-12
8.4622e-13
-1.76943e-12
1.57932e-12
-2.29211e-12
3.25277e-12
-1.91018e-12
3.24004e-12
-1.61241e-12
4.33266e-12
-8.40797e-13
4.1265e-12
-3.09833e-14
3.82525e-12
9.63626e-13
2.61226e-12
1.88594e-12
1.13755e-12
2.15956e-12
5.49784e-14
2.27715e-12
-1.70695e-12
1.82168e-12
-2.64867e-12
1.68607e-12
-4.59443e-12
9.56323e-13
-4.34709e-12
4.27663e-13
-4.57597e-12
-4.79016e-15
-3.45853e-12
-1.75144e-12
-1.14065e-13
-8.23204e-13
-2.41579e-13
-2.49108e-13
3.34717e-13
-1.06242e-12
-4.57123e-14
1.22685e-12
-3.75081e-13
1.90888e-12
-1.00481e-12
3.8827e-12
-1.79249e-13
2.41469e-12
-6.18593e-14
4.21548e-12
2.46562e-13
3.81828e-12
6.27184e-13
3.44483e-12
1.44806e-12
1.79159e-12
2.54727e-12
3.85378e-14
2.7299e-12
-1.27444e-13
2.58921e-12
-1.56606e-12
1.72807e-12
-1.78731e-12
1.98276e-12
-4.84891e-12
1.08986e-12
-3.45397e-12
2.86958e-13
-3.77284e-12
-2.46996e-13
-2.92435e-12
-1.99832e-12
-6.72542e-13
-1.50495e-13
-1.59382e-13
-7.62089e-13
2.07785e-12
-3.29947e-12
2.13161e-12
1.17327e-12
9.1509e-13
3.1256e-12
4.42174e-13
4.3558e-12
2.07167e-12
7.85382e-13
2.64208e-12
3.64526e-12
1.73961e-12
4.72095e-12
1.30847e-12
3.87616e-12
2.31612e-12
7.84135e-13
4.47044e-12
-2.11558e-12
3.79692e-12
5.46274e-13
2.69952e-12
-4.68456e-13
1.5353e-12
-6.22891e-13
2.7436e-12
-6.057e-12
1.9103e-12
-2.62046e-12
-2.28072e-14
-1.83952e-12
-1.12188e-12
-1.82507e-12
-3.12011e-12
-3.76836e-12
3.618e-12
-9.27263e-13
-3.60304e-12
5.27085e-12
-9.49743e-12
5.75123e-12
6.93036e-13
1.61827e-12
7.25871e-12
-1.04119e-13
6.07834e-12
5.02408e-12
-4.34266e-12
6.73653e-12
1.93297e-12
2.69346e-12
8.76418e-12
-6.21928e-13
7.1917e-12
2.05706e-12
-1.89469e-12
7.46457e-12
-7.52294e-12
6.30738e-12
1.70363e-12
7.85846e-13
5.05324e-12
4.93329e-13
-3.3021e-13
4.78957e-12
-1.03531e-11
5.23844e-12
-3.06916e-12
-4.90376e-13
3.88947e-12
-3.73108e-12
1.41579e-12
-6.85113e-12
-1.44395e-11
1.80576e-11
-3.15617e-12
-1.48863e-11
1.65181e-11
-2.91716e-11
1.3934e-11
3.27726e-12
-8.19477e-12
2.93875e-11
-8.59879e-12
6.48245e-12
9.46286e-12
-2.24042e-11
1.75025e-11
-6.10659e-12
-1.25996e-12
2.75267e-11
-1.46619e-11
2.05937e-11
-9.03001e-13
-1.56535e-11
1.72918e-11
-2.57177e-11
1.14544e-11
7.54107e-12
-9.48645e-12
2.59942e-11
-8.18992e-12
-1.62666e-12
9.66547e-12
-2.82084e-11
1.42909e-11
-7.69447e-12
-5.54362e-12
2.3724e-11
-1.54528e-11
1.13251e-11
-2.23039e-11
-5.22521e-11
7.03097e-11
-1.489e-11
-5.22483e-11
4.46003e-11
-8.86619e-11
3.11371e-11
1.67404e-11
-3.59836e-11
9.65082e-11
-3.55708e-11
6.06972e-12
2.07442e-11
-7.87192e-11
4.41638e-11
-2.95262e-11
-1.56507e-11
8.73412e-11
-5.62539e-11
6.1197e-11
-1.28034e-11
-5.91039e-11
4.17374e-11
-8.02585e-11
2.32575e-11
2.6021e-11
-4.28499e-11
9.21017e-11
-3.44707e-11
-1.00059e-11
2.65401e-11
-8.92191e-11
4.43294e-11
-2.54837e-11
-1.71066e-11
8.516e-11
-4.75371e-11
4.17555e-11
-6.9841e-11
-6.07166e-11
1.31026e-10
-1.288e-11
-1.00085e-10
4.28041e-11
-1.44346e-10
2.69691e-11
3.25755e-11
-5.41723e-11
1.7765e-10
-4.04101e-11
-7.69243e-12
1.64684e-11
-1.35598e-10
5.00212e-11
-6.30789e-11
-1.86541e-11
1.56017e-10
-6.32631e-11
1.05806e-10
-1.4077e-11
-1.0829e-10
3.94663e-11
-1.33802e-10
2.2431e-11
4.30564e-11
-4.69993e-11
1.61532e-10
-3.7591e-11
-1.94141e-11
1.86406e-11
-1.45451e-10
4.75685e-11
-5.44116e-11
-2.1652e-11
1.54381e-10
-4.21965e-11
6.23001e-11
-1.12037e-10
7.95348e-11
5.14917e-11
-4.27653e-12
-1.62733e-11
-9.05453e-11
-5.80769e-11
-7.11477e-11
1.31781e-11
-3.01554e-12
1.09518e-10
6.91111e-11
-7.98188e-11
-2.34407e-11
-4.30456e-11
-1.01118e-11
-7.64076e-11
5.1051e-11
9.4854e-11
8.36712e-11
7.31861e-11
-1.83499e-11
-6.26854e-12
-9.80768e-11
-5.40746e-11
-7.67417e-11
2.17215e-11
-1.18043e-11
9.65949e-11
5.43845e-11
-8.56027e-11
-4.62001e-11
-4.48658e-11
-2.61027e-12
-9.80012e-11
6.72977e-11
8.44729e-11
6.91574e-11
6.04407e-11
-4.28799e-11
-1.38066e-12
5.28726e-11
-3.28063e-11
1.51525e-11
-1.35149e-10
4.42661e-11
-7.56888e-11
-4.62819e-11
5.72841e-11
-2.34549e-11
7.0153e-11
-9.26874e-11
1.83397e-11
8.76796e-12
-2.37283e-11
-3.43393e-11
5.09421e-11
2.01838e-11
3.35725e-11
9.05561e-11
-4.63762e-11
7.36804e-11
-1.67677e-10
6.72265e-11
-1.14865e-10
-3.10907e-11
7.33112e-11
-9.15806e-11
6.20282e-11
-7.43194e-11
-1.98984e-12
1.91525e-11
-3.49954e-11
-6.49953e-11
6.91991e-11
-1.97213e-11
1.21354e-10
8.28597e-12
7.84744e-11
1.59713e-11
3.69015e-11
-6.61005e-12
3.77341e-11
1.08746e-11
2.67817e-11
-2.89813e-12
-3.25088e-11
2.76728e-11
-5.40256e-11
-1.638e-12
-6.33763e-11
8.33224e-12
-1.20201e-12
-2.09924e-11
-5.01434e-12
-2.51021e-11
2.42938e-11
-3.63066e-12
6.9085e-11
-4.7063e-12
7.47564e-11
1.60503e-11
4.64702e-11
1.23317e-11
-2.73718e-11
-5.3032e-12
-7.39455e-11
-1.74855e-11
-6.21368e-11
7.15108e-12
-5.48384e-12
-2.27055e-11
-3.51385e-11
-2.23525e-11
-2.0074e-11
-3.01275e-11
1.60613e-11
4.8347e-11
1.37447e-11
2.3157e-11
1.9697e-11
3.1782e-11
2.79537e-11
1.85252e-11
1.9097e-11
-2.36519e-11
9.97129e-12
-4.48996e-11
-1.16904e-11
-4.17144e-11
-1.1359e-11
-1.53307e-12
-2.22461e-11
5.87299e-12
-2.14555e-11
2.35034e-11
-2.32979e-12
4.99596e-11
1.62899e-11
5.61369e-11
3.02239e-11
3.25365e-11
2.17118e-11
-1.88595e-11
-3.38138e-13
-5.18953e-11
-1.69004e-11
-4.55743e-11
-8.95342e-12
-1.34305e-11
-2.13204e-11
-2.27713e-11
-2.75836e-11
-1.38106e-11
-2.15486e-11
1.00266e-11
2.67985e-11
9.4328e-12
1.37244e-11
2.06117e-11
2.06034e-11
2.80263e-11
1.11108e-11
1.89109e-11
-1.45363e-11
3.15707e-12
-2.91456e-11
-1.36464e-11
-2.49107e-11
-1.37172e-11
-1.46204e-12
-1.6505e-11
8.66104e-12
-1.42992e-11
2.12978e-11
-5.90676e-13
3.62513e-11
1.71596e-11
3.83869e-11
2.84127e-11
2.12836e-11
2.0321e-11
-1.07675e-11
1.33631e-12
-3.29104e-11
-1.20352e-11
-3.22026e-11
-9.04113e-12
-1.64244e-11
-1.51066e-11
-1.67056e-11
-1.92852e-11
-9.63176e-12
-1.38756e-11
4.61717e-12
1.2923e-11
6.31833e-12
7.40621e-12
1.49626e-11
1.19592e-11
2.00212e-11
6.05238e-12
1.3618e-11
-8.13289e-12
1.18703e-12
-1.67145e-11
-1.00989e-11
-1.36246e-11
-1.13264e-11
-2.3442e-13
-1.16204e-11
8.95524e-12
-8.51905e-12
1.81967e-11
1.32183e-12
2.64106e-11
1.34693e-11
2.62397e-11
2.06258e-11
1.41272e-11
1.56568e-11
-5.79827e-12
3.21026e-12
-2.04637e-11
-6.40284e-12
-2.25893e-11
-6.96933e-12
-1.58577e-11
-1.01757e-11
-1.3499e-11
-1.18686e-11
-7.93865e-12
-7.7913e-12
5.39999e-13
5.13174e-12
3.75693e-12
3.6494e-12
9.27278e-12
6.44352e-12
1.22784e-11
3.04686e-12
8.565e-12
-4.41935e-12
7.12728e-13
-8.8621e-12
-6.22979e-12
-6.68194e-12
-7.76921e-12
1.30514e-12
-7.45738e-12
8.64354e-12
-4.6597e-12
1.53991e-11
1.70323e-12
2.00478e-11
9.20356e-12
1.87395e-11
1.34706e-11
9.86033e-12
1.08332e-11
-3.16082e-12
3.6189e-12
-1.32493e-11
-2.55972e-12
-1.64106e-11
-4.40385e-12
-1.40135e-11
-6.2312e-12
-1.16716e-11
-6.68082e-12
-7.48892e-12
-3.98078e-12
-2.15994e-12
1.15099e-12
2.058e-12
1.59146e-12
5.06386e-12
3.43772e-12
6.70498e-12
1.40581e-12
4.79897e-12
-2.51328e-12
4.32275e-13
-4.49534e-12
-3.41093e-12
-2.83867e-12
-4.53371e-12
2.42799e-12
-4.21133e-12
8.32124e-12
-2.27626e-12
1.34641e-11
1.39991e-12
1.63717e-11
5.45516e-12
1.46843e-11
7.81121e-12
7.50434e-12
6.61183e-12
-1.96138e-12
2.82723e-12
-9.4646e-12
-6.84746e-13
-1.28986e-11
-2.27702e-12
-1.24212e-11
-3.297e-12
-1.06515e-11
-3.31733e-12
-7.46853e-12
-1.82643e-12
-3.65078e-12
-6.75429e-13
1.25809e-12
2.65799e-12
2.95512e-12
1.81975e-12
5.17549e-14
-1.68149e-12
-2.47131e-12
-2.24395e-12
-1.01544e-12
9.7833e-13
2.83915e-12
3.41385e-12
2.56007e-12
1.16427e-12
-4.84187e-14
-6.77164e-13
-1.01908e-12
-9.9837e-13
-5.26687e-13
)
;

boundaryField
{
    top
    {
        type            calculated;
        value           nonuniform List<scalar> 
20
(
3.33382e-13
2.03784e-12
1.10869e-12
-1.37789e-12
-2.72733e-12
-1.10541e-12
3.21782e-12
8.09391e-12
1.22356e-11
1.4378e-11
1.28235e-11
6.92966e-12
-1.10758e-12
-8.06878e-12
-1.16859e-11
-1.17924e-11
-1.03096e-11
-7.48922e-12
-4.12246e-12
-1.20212e-12
)
;
    }
    left
    {
        type            calculated;
        value           uniform 0;
    }
    right
    {
        type            calculated;
        value           uniform 0;
    }
    bottom
    {
        type            calculated;
        value           nonuniform List<scalar> 
20
(
0
0
-1.97215e-31
0
0
0
0
0
0
0
0
0
0
0
0
0
0
0
0
0
)
;
    }
    front
    {
        type            empty;
        value           nonuniform List<scalar> 0();
    }
    back
    {
        type            empty;
        value           nonuniform List<scalar> 0();
    }
    frontAndBack
    {
        type            empty;
        value           nonuniform List<scalar> 0();
    }
}


// ************************************************************************* //
