/*--------------------------------*- C++ -*----------------------------------*\
  =========                 |
  \\      /  F ield         | OpenFOAM: The Open Source CFD Toolbox
   \\    /   O peration     | Website:  https://openfoam.org
    \\  /    A nd           | Version:  10
     \\/     M anipulation  |
\*---------------------------------------------------------------------------*/
FoamFile
{
    format      ascii;
    class       volScalarField;
    location    "0.08";
    object      T;
}
// * * * * * * * * * * * * * * * * * * * * * * * * * * * * * * * * * * * * * //

dimensions      [0 0 0 1 0 0 0];

internalField   nonuniform List<scalar> 
800
(
300.024
300.033
300.049
300.073
300.103
300.137
300.174
300.21
300.238
300.254
300.253
300.237
300.209
300.174
300.137
300.102
300.073
300.049
300.033
300.025
300.039
300.051
300.075
300.109
300.149
300.194
300.241
300.283
300.317
300.336
300.336
300.317
300.283
300.24
300.194
300.15
300.109
300.075
300.051
300.039
300.07
300.092
300.133
300.189
300.252
300.318
300.381
300.437
300.48
300.504
300.504
300.48
300.438
300.382
300.32
300.254
300.19
300.135
300.093
300.07
300.123
300.162
300.232
300.323
300.423
300.522
300.61
300.682
300.736
300.765
300.765
300.738
300.686
300.614
300.526
300.428
300.327
300.235
300.163
300.123
300.198
300.262
300.374
300.518
300.671
300.815
300.936
301.029
301.093
301.127
301.128
301.098
301.036
300.944
300.823
300.679
300.524
300.378
300.264
300.199
300.292
300.386
300.553
300.766
300.992
301.198
301.363
301.482
301.557
301.595
301.598
301.566
301.494
301.375
301.21
301.002
300.773
300.557
300.388
300.293
300.392
300.52
300.749
301.046
301.365
301.656
301.882
302.036
302.127
302.169
302.174
302.138
302.051
301.897
301.669
301.375
301.052
300.751
300.52
300.392
300.482
300.642
300.936
301.328
301.759
302.159
302.47
302.675
302.788
302.837
302.843
302.802
302.691
302.484
302.169
301.763
301.326
300.931
300.637
300.479
300.546
300.732
301.087
301.579
302.138
302.67
303.093
303.372
303.519
303.58
303.587
303.534
303.385
303.102
302.671
302.128
301.561
301.07
300.72
300.538
300.574
300.778
301.185
301.773
302.467
303.151
303.711
304.088
304.289
304.371
304.378
304.301
304.094
303.707
303.131
302.432
301.732
301.152
300.756
300.559
300.563
300.776
301.22
301.889
302.715
303.562
304.282
304.781
305.058
305.173
305.177
305.062
304.772
304.251
303.508
302.646
301.822
301.169
300.744
300.543
300.519
300.731
301.193
301.922
302.866
303.876
304.767
305.409
305.782
305.94
305.939
305.769
305.368
304.688
303.765
302.746
301.82
301.123
300.69
300.494
300.453
300.656
301.118
301.882
302.916
304.072
305.131
305.926
306.407
306.617
306.605
306.361
305.827
304.972
303.871
302.719
301.728
301.02
300.602
300.422
300.374
300.561
301.003
301.768
302.852
304.118
305.33
306.276
306.87
307.132
307.101
306.766
306.082
305.051
303.798
302.561
301.558
300.879
300.497
300.339
300.293
300.457
300.858
301.584
302.662
303.982
305.305
306.383
307.086
307.398
307.339
306.902
306.066
304.883
303.533
302.282
301.328
300.716
300.388
300.257
300.217
300.352
300.695
301.342
302.349
303.645
305.01
306.177
306.965
307.314
307.219
306.681
305.719
304.443
303.085
301.907
301.06
300.546
300.284
300.182
300.152
300.256
300.529
301.065
301.94
303.12
304.43
305.607
306.43
306.79
306.66
306.047
305.022
303.754
302.496
301.474
300.784
300.387
300.193
300.121
300.099
300.174
300.374
300.783
301.478
302.463
303.613
304.695
305.475
305.808
305.647
305.016
304.026
302.885
301.834
301.037
300.53
300.253
300.122
300.075
300.061
300.11
300.245
300.527
301.026
301.765
302.667
303.552
304.207
304.476
304.302
303.727
302.886
301.982
301.207
300.656
300.324
300.15
300.071
300.043
300.035
300.065
300.147
300.324
300.644
301.134
301.754
302.382
302.854
303.037
302.88
302.43
301.816
301.199
300.704
300.37
300.178
300.081
300.038
300.023
300.018
300.035
300.081
300.18
300.363
300.649
301.017
301.396
301.682
301.783
301.666
301.37
300.992
300.635
300.362
300.186
300.088
300.04
300.018
300.011
300.009
300.018
300.041
300.091
300.184
300.329
300.517
300.711
300.855
300.899
300.827
300.665
300.471
300.295
300.165
300.084
300.039
300.018
300.008
300.005
300.004
300.008
300.019
300.042
300.084
300.148
300.231
300.315
300.375
300.39
300.354
300.28
300.195
300.121
300.067
300.034
300.016
300.007
300.003
300.002
300.002
300.003
300.008
300.017
300.034
300.06
300.091
300.122
300.144
300.148
300.133
300.104
300.072
300.045
300.025
300.012
300.006
300.003
300.001
300.001
300.001
300.001
300.003
300.007
300.013
300.022
300.032
300.042
300.049
300.05
300.044
300.035
300.024
300.015
300.008
300.004
300.002
300.001
300
300
300
300
300.001
300.002
300.004
300.007
300.01
300.013
300.015
300.015
300.014
300.011
300.008
300.005
300.003
300.001
300.001
300
300
300
300
300
300
300.001
300.001
300.002
300.003
300.004
300.004
300.004
300.004
300.003
300.002
300.001
300.001
300
300
300
300
300
300
300
300
300
300
300.001
300.001
300.001
300.001
300.001
300.001
300.001
300.001
300
300
300
300
300
300
300
300
300
300
300
300
300
300
300
300
300
300
300
300
300
300
300
300
300
300
300
300
300
300
300
300
300
300
300
300
300
300
300
300
300
300
300
300
300
300
300
300
300
300
300
300
300
300
300
300
300
300
300
300
300
300
300
300
300
300
300
300
300
300
300
300
300
300
300
300
300
300
300
300
300
300
300
300
300
300
300
300
300
300
300
300
300
300
300
300
300
300
300
300
300
300
300
300
300
300
300
300
300
300
300
300
300
300
300
300
300
300
300
300
300
300
300
300
300
300
300
300
300
300
300
300
300
300
300
300
300
300
300
300
300
300
300
300
300
300
300
300
300
300
300
300
300
300
300
300
300
300
300
300
300
300
300
300
300
300
300
300
300
300
300
300
300
300
300
300
300
300
300
300
300
300
300
300
300
300
300
300
300
300
300
300
300
300
300
300
300
300
300
300
300
300
300
300
300
300
300
300
300
300
300
300
300
300
300
300
300
300
300
300
300
300
300
300
300
300
300
300
300
300
300
300
300
300
300
300
300
300
300
300
300
300
300
300
300
300
300
)
;

boundaryField
{
    top
    {
        type            inletOutlet;
        inletValue      uniform 300;
        value           nonuniform List<scalar> 
20
(
300
300
300
300
300
300
300
300
300
300
300
300
300
300
300
300
300
300
300
300
)
;
    }
    left
    {
        type            zeroGradient;
    }
    right
    {
        type            zeroGradient;
    }
    bottom
    {
        type            zeroGradient;
    }
    front
    {
        type            empty;
    }
    back
    {
        type            empty;
    }
    frontAndBack
    {
        type            empty;
    }
}


// ************************************************************************* //
