/*--------------------------------*- C++ -*----------------------------------*\
  =========                 |
  \\      /  F ield         | OpenFOAM: The Open Source CFD Toolbox
   \\    /   O peration     | Website:  https://openfoam.org
    \\  /    A nd           | Version:  10
     \\/     M anipulation  |
\*---------------------------------------------------------------------------*/
FoamFile
{
    format      ascii;
    class       volVectorField;
    location    "0.08";
    object      U;
}
// * * * * * * * * * * * * * * * * * * * * * * * * * * * * * * * * * * * * * //

dimensions      [0 1 -1 0 0 0 0];

internalField   nonuniform List<vector> 
800
(
(1.18393e-06 -3.3035e-07 0)
(2.69141e-05 -4.53846e-06 0)
(7.69219e-05 -1.33468e-05 0)
(0.000137405 -1.36849e-05 0)
(0.000184034 -6.74533e-06 0)
(0.000204255 -1.71142e-06 0)
(0.000191918 5.70779e-06 0)
(0.000150743 8.26623e-06 0)
(8.84171e-05 1.41716e-05 0)
(1.2504e-05 1.52326e-05 0)
(-6.40722e-05 1.34821e-05 0)
(-0.000134219 1.22176e-05 0)
(-0.00019236 9.41779e-06 0)
(-0.000229971 7.42799e-06 0)
(-0.000232846 -5.45697e-06 0)
(-0.000197221 -1.26931e-05 0)
(-0.000137251 -1.61785e-05 0)
(-7.5695e-05 -6.22459e-06 0)
(-2.40727e-05 -7.712e-06 0)
(2.2787e-06 2.22069e-06 0)
(1.00833e-05 -2.98261e-05 0)
(9.18571e-05 -7.48797e-05 0)
(0.000211066 -0.00010879 0)
(0.000334224 -0.000101997 0)
(0.000428738 -6.15228e-05 0)
(0.000470274 -1.10881e-05 0)
(0.000437872 5.99112e-05 0)
(0.000338095 9.78926e-05 0)
(0.000192257 0.000136582 0)
(2.03378e-05 0.000146236 0)
(-0.000154802 0.000139937 0)
(-0.000318292 0.000124154 0)
(-0.000451607 9.18662e-05 0)
(-0.000527998 4.09899e-05 0)
(-0.000532017 -3.31182e-05 0)
(-0.000470234 -8.68651e-05 0)
(-0.000359592 -0.000116372 0)
(-0.000220596 -0.000105013 0)
(-8.79925e-05 -8.5693e-05 0)
(-6.84072e-06 -2.34829e-05 0)
(1.59557e-05 -9.37895e-05 0)
(0.00014266 -0.00020692 0)
(0.000309903 -0.000252398 0)
(0.000469449 -0.000227169 0)
(0.000586222 -0.000136937 0)
(0.000628232 -1.35375e-05 0)
(0.000589369 0.000135018 0)
(0.000466344 0.000243092 0)
(0.000272206 0.00032704 0)
(3.81443e-05 0.000356971 0)
(-0.000210133 0.000347834 0)
(-0.000438544 0.000303567 0)
(-0.000615703 0.000218628 0)
(-0.000714841 8.51393e-05 0)
(-0.000728745 -6.08735e-05 0)
(-0.000657579 -0.000185697 0)
(-0.000509353 -0.00026321 0)
(-0.000317996 -0.000273794 0)
(-0.000134634 -0.000221685 0)
(-1.32408e-05 -8.26565e-05 0)
(2.52857e-05 -0.00018245 0)
(0.000179186 -0.000377376 0)
(0.000374044 -0.000429482 0)
(0.000561849 -0.000379451 0)
(0.000699017 -0.000224235 0)
(0.000749556 -9.56549e-06 0)
(0.000695432 0.000224323 0)
(0.000543097 0.00042211 0)
(0.000315826 0.000562093 0)
(4.11322e-05 0.000623835 0)
(-0.0002478 0.00061086 0)
(-0.000511721 0.000525164 0)
(-0.000712981 0.000368482 0)
(-0.000835731 0.000151536 0)
(-0.000864757 -8.49527e-05 0)
(-0.000784542 -0.000305023 0)
(-0.000610048 -0.000451014 0)
(-0.000380376 -0.000485754 0)
(-0.000162033 -0.000394076 0)
(-1.66159e-05 -0.000160847 0)
(1.37308e-05 -0.000273892 0)
(0.000163544 -0.000563825 0)
(0.000387129 -0.000640019 0)
(0.000611184 -0.000558404 0)
(0.000770755 -0.000327588 0)
(0.00082869 -1.03005e-05 0)
(0.000764175 0.000340138 0)
(0.000590988 0.000623921 0)
(0.000339522 0.000829137 0)
(3.69416e-05 0.00092297 0)
(-0.000280648 0.000905195 0)
(-0.000575252 0.00077649 0)
(-0.000809198 0.000541185 0)
(-0.000956284 0.000240227 0)
(-0.000988816 -0.00011352 0)
(-0.000893114 -0.000443188 0)
(-0.000692155 -0.000669339 0)
(-0.000429987 -0.000732425 0)
(-0.000180476 -0.000592013 0)
(-1.65544e-05 -0.000250048 0)
(1.53072e-05 -0.00036023 0)
(0.000176353 -0.000762494 0)
(0.000421421 -0.000881709 0)
(0.000662768 -0.000756229 0)
(0.000824347 -0.000436517 0)
(0.000874121 -5.84863e-06 0)
(0.00080263 0.00046672 0)
(0.000617982 0.000846086 0)
(0.000348866 0.00111628 0)
(2.97101e-05 0.00124361 0)
(-0.000306925 0.00122273 0)
(-0.000622247 0.00105455 0)
(-0.000881827 0.000744113 0)
(-0.00105299 0.000345743 0)
(-0.00108991 -0.00015125 0)
(-0.00097989 -0.000601373 0)
(-0.000759834 -0.000912234 0)
(-0.000478614 -0.00100483 0)
(-0.000206734 -0.000815261 0)
(-2.09285e-05 -0.000350636 0)
(2.22713e-05 -0.000456995 0)
(0.000202588 -0.000978181 0)
(0.000455097 -0.00113334 0)
(0.000696252 -0.000957778 0)
(0.000856399 -0.000538538 0)
(0.000896805 1.39672e-05 0)
(0.000814231 0.000600175 0)
(0.000621895 0.00108225 0)
(0.000350151 0.00140911 0)
(2.398e-05 0.00157864 0)
(-0.000328008 0.00155658 0)
(-0.00065547 0.00134716 0)
(-0.000929214 0.000970526 0)
(-0.00109919 0.000450357 0)
(-0.00112911 -0.000187112 0)
(-0.00102223 -0.00076844 0)
(-0.00079779 -0.00116806 0)
(-0.000508805 -0.00129085 0)
(-0.000222919 -0.00106017 0)
(-2.2705e-05 -0.000462808 0)
(1.5812e-05 -0.000561589 0)
(0.000201666 -0.00121125 0)
(0.000464778 -0.00138618 0)
(0.000708836 -0.00116239 0)
(0.00087329 -0.000639507 0)
(0.000919597 3.76637e-05 0)
(0.000842243 0.000737262 0)
(0.00066525 0.00130925 0)
(0.000388889 0.00171819 0)
(3.0978e-05 0.00193473 0)
(-0.000344949 0.00190916 0)
(-0.000690662 0.0016524 0)
(-0.000967432 0.00120255 0)
(-0.00113661 0.000549688 0)
(-0.00115675 -0.00023485 0)
(-0.00103105 -0.000942435 0)
(-0.000801042 -0.0014297 0)
(-0.000509112 -0.00158462 0)
(-0.000222768 -0.00131286 0)
(-2.32563e-05 -0.000579005 0)
(3.07596e-05 -0.000673387 0)
(0.000217243 -0.00144132 0)
(0.000453014 -0.00163063 0)
(0.000681923 -0.00136596 0)
(0.000843178 -0.000741817 0)
(0.00089841 4.7093e-05 0)
(0.000843341 0.000859536 0)
(0.000672073 0.00153034 0)
(0.000388327 0.0020455 0)
(2.82081e-05 0.00230886 0)
(-0.00034994 0.00227362 0)
(-0.000693394 0.00196338 0)
(-0.000948057 0.00141135 0)
(-0.00107415 0.000632478 0)
(-0.00108268 -0.000284752 0)
(-0.000975596 -0.00111484 0)
(-0.000764852 -0.00168105 0)
(-0.000495251 -0.00187249 0)
(-0.000214647 -0.00156681 0)
(-1.75791e-05 -0.000693063 0)
(1.95205e-05 -0.000779619 0)
(0.000176685 -0.00164669 0)
(0.000382133 -0.00184639 0)
(0.000586575 -0.00156087 0)
(0.000759941 -0.000862114 0)
(0.000840444 4.12785e-05 0)
(0.000802163 0.00095865 0)
(0.000637763 0.00175974 0)
(0.000356203 0.00236745 0)
(1.86258e-05 0.00266965 0)
(-0.000330686 0.00262634 0)
(-0.000652229 0.00226083 0)
(-0.00088634 0.0015904 0)
(-0.00099039 0.000681131 0)
(-0.000977398 -0.00032999 0)
(-0.000867075 -0.00127253 0)
(-0.000674824 -0.00190809 0)
(-0.000430522 -0.00213752 0)
(-0.00019943 -0.00179232 0)
(-2.9269e-05 -0.000806175 0)
(1.26741e-05 -0.000861554 0)
(0.000133969 -0.00181853 0)
(0.000314309 -0.00204336 0)
(0.000508302 -0.00174578 0)
(0.000674284 -0.00100359 0)
(0.000762784 2.28866e-05 0)
(0.000721808 0.00105765 0)
(0.000551659 0.00198707 0)
(0.00029354 0.00266473 0)
(-3.34214e-06 0.002993 0)
(-0.000305566 0.00294157 0)
(-0.000573062 0.00252064 0)
(-0.000768623 0.00174982 0)
(-0.000859136 0.000715749 0)
(-0.000831854 -0.000396923 0)
(-0.000712153 -0.00142291 0)
(-0.000538666 -0.00210787 0)
(-0.00034337 -0.00235928 0)
(-0.000153077 -0.00197538 0)
(-1.60941e-05 -0.000903026 0)
(1.95465e-05 -0.000932778 0)
(0.000122246 -0.00195541 0)
(0.00027032 -0.00222897 0)
(0.000435313 -0.00190912 0)
(0.000558788 -0.0011214 0)
(0.000622478 -2.1776e-06 0)
(0.000587382 0.00116192 0)
(0.000440814 0.00219269 0)
(0.000218807 0.00292701 0)
(-3.29469e-05 0.00327006 0)
(-0.000276552 0.00320235 0)
(-0.000486891 0.00272848 0)
(-0.00064037 0.00188364 0)
(-0.000705863 0.000738069 0)
(-0.000664897 -0.000479537 0)
(-0.00054904 -0.00156554 0)
(-0.000394883 -0.00228309 0)
(-0.000235352 -0.00252932 0)
(-8.81451e-05 -0.00212607 0)
(1.52534e-06 -0.0009629 0)
(1.4333e-05 -0.000994058 0)
(8.58302e-05 -0.00205866 0)
(0.000176188 -0.00236579 0)
(0.000264641 -0.00202094 0)
(0.000332232 -0.00119396 0)
(0.000370658 -1.99088e-05 0)
(0.000351228 0.00124137 0)
(0.000242117 0.00236334 0)
(7.84674e-05 0.00313367 0)
(-8.87448e-05 0.00347872 0)
(-0.00024645 0.00339187 0)
(-0.000379172 0.00287797 0)
(-0.000463568 0.00197003 0)
(-0.00049003 0.000747262 0)
(-0.000452713 -0.000556052 0)
(-0.00036163 -0.00168381 0)
(-0.000260965 -0.00241191 0)
(-0.000165258 -0.0026515 0)
(-7.44558e-05 -0.00223301 0)
(-9.39186e-06 -0.00100251 0)
(9.56063e-07 -0.00102356 0)
(1.61812e-05 -0.00211053 0)
(2.83611e-05 -0.00241755 0)
(3.40379e-05 -0.00206492 0)
(4.90568e-05 -0.00122689 0)
(6.12848e-05 -2.126e-05 0)
(3.24393e-05 0.00129692 0)
(-2.51575e-05 0.00246866 0)
(-8.22162e-05 0.0032477 0)
(-0.000152592 0.00359805 0)
(-0.000221148 0.00349385 0)
(-0.00026631 0.00295007 0)
(-0.000279199 0.00199582 0)
(-0.000256933 0.00073143 0)
(-0.000200788 -0.000621026 0)
(-0.000141161 -0.00175957 0)
(-7.94575e-05 -0.00249058 0)
(-3.05837e-05 -0.00271463 0)
(-2.1016e-05 -0.0022789 0)
(-8.59539e-06 -0.00103038 0)
(-3.80416e-06 -0.00101485 0)
(-4.79267e-05 -0.00209234 0)
(-0.000120602 -0.00238008 0)
(-0.000191483 -0.00204421 0)
(-0.000242656 -0.0012094 0)
(-0.000269406 -1.5556e-05 0)
(-0.000273775 0.00132347 0)
(-0.000258314 0.00248014 0)
(-0.000231674 0.0032684 0)
(-0.000216314 0.0036269 0)
(-0.000193829 0.00350478 0)
(-0.000142606 0.00293112 0)
(-6.67809e-05 0.0019565 0)
(1.21275e-05 0.000679209 0)
(7.18266e-05 -0.000674716 0)
(0.000110331 -0.00180046 0)
(0.00012427 -0.00252146 0)
(9.9645e-05 -0.00271099 0)
(4.87843e-05 -0.00225793 0)
(5.97004e-06 -0.00102623 0)
(-9.04703e-06 -0.000971641 0)
(-0.000116934 -0.00199462 0)
(-0.000270798 -0.00226503 0)
(-0.000414314 -0.00195677 0)
(-0.000518195 -0.00114512 0)
(-0.000564416 -8.0924e-07 0)
(-0.00055269 0.00130969 0)
(-0.000497344 0.00242694 0)
(-0.000404108 0.00320365 0)
(-0.000281229 0.00355198 0)
(-0.00014634 0.00342069 0)
(-8.71713e-06 0.00282764 0)
(0.00013289 0.00184912 0)
(0.000262456 0.000589502 0)
(0.00035335 -0.000729254 0)
(0.000381596 -0.00181303 0)
(0.000334129 -0.00247922 0)
(0.000228523 -0.0026344 0)
(0.000106667 -0.00217733 0)
(1.35141e-05 -0.000984439 0)
(-1.61546e-05 -0.000896407 0)
(-0.000173082 -0.00182476 0)
(-0.000395203 -0.00207813 0)
(-0.000615681 -0.00179774 0)
(-0.000774646 -0.00105308 0)
(-0.000834088 8.13644e-06 0)
(-0.000788176 0.0012467 0)
(-0.000672798 0.0023252 0)
(-0.000522091 0.00306422 0)
(-0.000322341 0.00337121 0)
(-9.00888e-05 0.00323829 0)
(0.000133265 0.00265082 0)
(0.000351154 0.00167231 0)
(0.00054491 0.000455997 0)
(0.000642321 -0.000778177 0)
(0.000621074 -0.00177494 0)
(0.000509206 -0.00236681 0)
(0.000338003 -0.00248367 0)
(0.000152088 -0.00203632 0)
(1.67162e-05 -0.00091434 0)
(-2.07324e-05 -0.000795529 0)
(-0.000210467 -0.00160526 0)
(-0.000481636 -0.00182463 0)
(-0.000758738 -0.00157466 0)
(-0.000970591 -0.000922051 0)
(-0.00107592 2.866e-05 0)
(-0.00104036 0.00114219 0)
(-0.000882244 0.00216294 0)
(-0.000653329 0.0028509 0)
(-0.000376032 0.00311174 0)
(-6.58448e-05 0.00296171 0)
(0.000251549 0.00239037 0)
(0.000533048 0.00143906 0)
(0.000740814 0.000298097 0)
(0.000829875 -0.000804606 0)
(0.00078159 -0.00168575 0)
(0.000625968 -0.00219945 0)
(0.000409034 -0.00227744 0)
(0.000183438 -0.00184838 0)
(2.07422e-05 -0.000824431 0)
(-2.24469e-05 -0.000678881 0)
(-0.000231971 -0.00135349 0)
(-0.000529048 -0.00152964 0)
(-0.000832711 -0.00131078 0)
(-0.00107701 -0.000745638 0)
(-0.00121571 8.98038e-05 0)
(-0.00121126 0.0010449 0)
(-0.00104493 0.00194477 0)
(-0.00075754 0.00255899 0)
(-0.000410197 0.00278218 0)
(-3.47603e-05 0.00260884 0)
(0.000339553 0.00205765 0)
(0.000658814 0.00117984 0)
(0.000862645 0.000154408 0)
(0.000923498 -0.000810564 0)
(0.000849991 -0.00156672 0)
(0.00067174 -0.0019984 0)
(0.000434194 -0.00204101 0)
(0.00019388 -0.00163741 0)
(2.21988e-05 -0.000723428 0)
(-2.06629e-05 -0.000558074 0)
(-0.000229954 -0.00108828 0)
(-0.000530553 -0.00122007 0)
(-0.000844341 -0.00102627 0)
(-0.00110663 -0.000541301 0)
(-0.0012618 0.000168331 0)
(-0.00126807 0.000967373 0)
(-0.00110969 0.0017061 0)
(-0.000810507 0.0022203 0)
(-0.0004286 0.00239642 0)
(-1.75686e-05 0.00221176 0)
(0.00037705 0.00169427 0)
(0.000695481 0.000916041 0)
(0.000885744 3.12727e-05 0)
(0.000930347 -0.000794764 0)
(0.000842553 -0.00143171 0)
(0.000656843 -0.00178481 0)
(0.000419127 -0.00179799 0)
(0.000184994 -0.00142519 0)
(2.0818e-05 -0.000622252 0)
(-1.64146e-05 -0.000444618 0)
(-0.000210273 -0.000830862 0)
(-0.000495914 -0.00091447 0)
(-0.000800661 -0.00073722 0)
(-0.00106006 -0.000327875 0)
(-0.00121697 0.000253414 0)
(-0.00122936 0.00089699 0)
(-0.00108337 0.00147928 0)
(-0.000798907 0.00187583 0)
(-0.000424349 0.00199442 0)
(-1.84704e-05 0.00180563 0)
(0.000361361 0.0013379 0)
(0.000656978 0.000669038 0)
(0.000826249 -7.75195e-05 0)
(0.000857594 -0.000767322 0)
(0.000768156 -0.00129447 0)
(0.000592238 -0.00157713 0)
(0.000372716 -0.0015682 0)
(0.000161865 -0.00122893 0)
(1.76909e-05 -0.000530321 0)
(-1.03523e-05 -0.000347627 0)
(-0.000178242 -0.000598034 0)
(-0.000432334 -0.00063236 0)
(-0.000707222 -0.000464719 0)
(-0.000943947 -0.000124172 0)
(-0.00109106 0.000339535 0)
(-0.00110897 0.00083618 0)
(-0.000982953 0.00127565 0)
(-0.000731182 0.00155882 0)
(-0.000394336 0.00161726 0)
(-2.76602e-05 0.00142684 0)
(0.00031208 0.00101343 0)
(0.000571036 0.000449468 0)
(0.000715623 -0.000170224 0)
(0.000736405 -0.000734936 0)
(0.00065292 -0.00116805 0)
(0.000496953 -0.00138935 0)
(0.000306476 -0.00136654 0)
(0.000129626 -0.00106075 0)
(1.31311e-05 -0.000453879 0)
(-1.22574e-06 -0.000273551 0)
(-0.000138338 -0.000400449 0)
(-0.000347614 -0.000391808 0)
(-0.000575361 -0.000227122 0)
(-0.000775813 5.52014e-05 0)
(-0.000906331 0.000423448 0)
(-0.000928193 0.000788159 0)
(-0.000825611 0.00110547 0)
(-0.000618244 0.0012877 0)
(-0.000335738 0.00129254 0)
(-2.69767e-05 0.00110019 0)
(0.000260289 0.000736307 0)
(0.000475744 0.000266356 0)
(0.000593179 -0.000244654 0)
(0.000601972 -0.000699135 0)
(0.000527756 -0.00106095 0)
(0.000395212 -0.0012269 0)
(0.000235851 -0.00120231 0)
(9.58659e-05 -0.00092573 0)
(7.99821e-06 -0.000395834 0)
(8.08752e-06 -0.000211403 0)
(-9.47058e-05 -0.000223633 0)
(-0.000248309 -0.000190656 0)
(-0.00041355 -2.04938e-05 0)
(-0.000568409 0.00020541 0)
(-0.000681262 0.000507513 0)
(-0.000705462 0.000744773 0)
(-0.000622114 0.000972633 0)
(-0.000464082 0.00106475 0)
(-0.000239769 0.00102878 0)
(6.50607e-06 0.000831678 0)
(0.000243057 0.000513731 0)
(0.000414208 0.000136661 0)
(0.0005042 -0.000295082 0)
(0.000490605 -0.000655548 0)
(0.000422657 -0.00098284 0)
(0.000309814 -0.0010878 0)
(0.000170339 -0.00107952 0)
(6.22661e-05 -0.000824021 0)
(3.65096e-08 -0.000361214 0)
(2.83591e-05 -0.000211535 0)
(-5.37041e-05 -0.00015517 0)
(-0.000140493 -0.000141645 0)
(-0.00023106 0.000100575 0)
(-0.000328449 0.000271387 0)
(-0.000425553 0.000582522 0)
(-0.000445202 0.000666902 0)
(-0.000364374 0.000871525 0)
(-0.000260454 0.000869197 0)
(-8.98772e-05 0.000807814 0)
(9.58746e-05 0.000573594 0)
(0.000303921 0.000265827 0)
(0.000419495 -2.31394e-05 0)
(0.000469736 -0.000373662 0)
(0.000414621 -0.000612015 0)
(0.000358693 -0.00095452 0)
(0.000264395 -0.000958505 0)
(0.000120974 -0.000982823 0)
(3.39518e-05 -0.000743411 0)
(-2.12236e-05 -0.000359952 0)
(3.30695e-05 -0.000102393 0)
(-4.32707e-05 -1.93874e-06 0)
(2.20402e-05 -6.58153e-05 0)
(3.88383e-05 0.000281769 0)
(-1.02355e-05 0.00044546 0)
(-0.000122954 0.000754453 0)
(-0.000137941 0.000653652 0)
(-2.27154e-05 0.000912935 0)
(-7.98362e-06 0.000871327 0)
(9.77635e-05 0.000795898 0)
(0.000193928 0.000499771 0)
(0.00042058 0.000189212 0)
(0.000531445 7.81537e-05 0)
(0.000576491 -0.000219344 0)
(0.000416007 -0.000353226 0)
(0.00037154 -0.00084757 0)
(0.000304878 -0.000703403 0)
(0.000100796 -0.000744431 0)
(2.53458e-06 -0.000559475 0)
(-4.4416e-05 -0.000323413 0)
(7.14369e-06 -9.79717e-05 0)
(-0.000117709 -0.000243203 0)
(0.000178079 -0.000547157 0)
(0.000395293 4.48131e-05 0)
(0.000317188 0.000295748 0)
(0.000114848 0.000690025 0)
(0.000213309 0.000164988 0)
(0.000469714 0.000616816 0)
(0.000352597 0.000632533 0)
(0.000302469 0.00056319 0)
(0.000316294 5.75474e-05 0)
(0.00069885 -0.000399543 0)
(0.000801804 -0.000194463 0)
(0.000709207 -0.000394935 0)
(0.000334202 -0.000545692 0)
(0.000375687 -0.0013021 0)
(0.000472707 -0.000878474 0)
(0.000124751 -0.000810341 0)
(-0.000101266 -0.000699553 0)
(-0.000143077 -0.00065488 0)
(-0.000283126 0.000628387 0)
(-0.000503607 -0.000222391 0)
(0.000368672 -0.0010852 0)
(0.000978808 0.000816732 0)
(0.0007251 0.00168776 0)
(0.000135844 0.00147654 0)
(0.000386274 -0.000244168 0)
(0.00107493 0.00101999 0)
(0.000784461 0.00186405 0)
(0.000195563 0.00157092 0)
(3.73533e-05 0.000104992 0)
(0.00085438 -0.000801218 0)
(0.00124182 0.000774022 0)
(0.000700459 0.00103094 0)
(3.57592e-05 0.000483353 0)
(0.000434391 -0.00138127 0)
(0.000917864 -1.76003e-05 0)
(0.000361107 0.000661478 0)
(-0.000397737 0.000283327 0)
(-0.000392532 -0.000900282 0)
(-0.00121534 0.00159257 0)
(-0.00178113 -0.0022221 0)
(0.00123182 -0.00453369 0)
(0.00290541 -0.000671647 0)
(0.000537985 0.00212885 0)
(-0.00162511 0.000254794 0)
(0.000103846 -0.00329661 0)
(0.00248445 -0.00110794 0)
(0.00146429 0.00250996 0)
(-0.0016047 0.00199454 0)
(-0.00155499 -0.0020177 0)
(0.00147063 -0.00387401 0)
(0.00274673 -7.90928e-05 0)
(8.97271e-05 0.00170967 0)
(-0.00171188 -0.00122074 0)
(0.000146358 -0.00474192 0)
(0.00230452 -0.00207602 0)
(0.000789895 0.00138414 0)
(-0.00201934 0.000396526 0)
(-0.00165241 -0.00316548 0)
(-0.0048791 0.00458424 0)
(-0.00642741 -0.00168826 0)
(0.00288877 -0.00398552 0)
(0.00683392 0.00231078 0)
(-5.95981e-05 0.00791841 0)
(-0.00636827 0.00289714 0)
(-0.00109308 -0.00227123 0)
(0.00572752 0.000322165 0)
(0.00285366 0.00675743 0)
(-0.00678416 0.0050223 0)
(-0.00628915 -0.00204186 0)
(0.00293382 -0.00354412 0)
(0.00576119 0.00296692 0)
(-0.00186403 0.00730468 0)
(-0.00694761 0.00129164 0)
(-0.000475303 -0.00317804 0)
(0.00645595 0.000309818 0)
(0.00218795 0.00688858 0)
(-0.00586035 0.00370632 0)
(-0.00483368 -0.0035188 0)
(-0.00651945 0.0103726 0)
(-0.00733171 -0.0106079 0)
(0.00374822 -0.017606 0)
(0.00668058 0.000974734 0)
(-0.00227634 0.0122598 0)
(-0.00930899 -0.00125477 0)
(-0.00195606 -0.016406 0)
(0.00642718 -0.00683713 0)
(0.00342166 0.0120486 0)
(-0.00792395 0.0085066 0)
(-0.00740545 -0.0118044 0)
(0.00284619 -0.0158717 0)
(0.0063144 0.00256029 0)
(-0.00209855 0.0112331 0)
(-0.00837888 -0.00408683 0)
(-0.00194729 -0.019016 0)
(0.00706203 -0.00661758 0)
(0.00218566 0.0110812 0)
(-0.00618408 0.00511412 0)
(-0.0039522 -0.0133129 0)
(0.00881701 0.0322056 0)
(0.00483475 -0.023619 0)
(-0.00832492 -0.0357228 0)
(-0.0140659 0.00975427 0)
(-0.00797461 0.0495722 0)
(0.00444887 -0.00536736 0)
(0.00455694 -0.0330363 0)
(-0.00161343 -0.0196264 0)
(0.00595023 0.0414314 0)
(0.0119085 0.0285963 0)
(0.00495093 -0.0258549 0)
(-0.0110095 -0.0338391 0)
(-0.0157179 0.0130153 0)
(-0.00941033 0.0458023 0)
(0.00298803 -0.00778095 0)
(0.00060295 -0.0335066 0)
(-0.00314257 -0.0172939 0)
(0.00738655 0.0417095 0)
(0.0121334 0.020294 0)
(0.00623748 -0.0272755 0)
(0.0017949 0.0108104 0)
(-0.00359265 0.00152902 0)
(-0.0181587 -0.000873749 0)
(-0.0219113 -0.00246941 0)
(-0.00206265 0.0118103 0)
(0.0141885 -0.0192461 0)
(0.00927676 -0.00449945 0)
(-0.00140086 -0.0127681 0)
(0.00275203 0.0131146 0)
(0.00952738 0.0179015 0)
(-0.000942801 0.00940694 0)
(-0.0233357 0.00219739 0)
(-0.0289835 -0.000572431 0)
(-0.00373062 0.00316635 0)
(0.0148605 -0.0175522 0)
(0.00639016 -0.00324141 0)
(-0.00511271 -0.0179744 0)
(0.00314108 0.00859816 0)
(0.0207174 0.00829762 0)
(0.0124736 0.00387947 0)
(0.00211055 0.0099062 0)
(0.000554876 0.00643183 0)
(-0.000188437 0.00766199 0)
(0.00038002 -0.00846671 0)
(0.00309122 -0.00974664 0)
(0.00290618 -0.0168127 0)
(0.000829254 0.00164299 0)
(-0.00122022 -0.00420971 0)
(-0.00477747 0.00423523 0)
(-0.00271583 0.0167039 0)
(-0.000702471 0.0165528 0)
(0.000821886 0.0122425 0)
(0.00223021 -0.00631046 0)
(0.000870139 -0.0183041 0)
(-0.00192391 -0.0150765 0)
(-0.0006692 0.00237117 0)
(-0.00144032 -0.0109651 0)
(-0.00497388 -0.00517729 0)
(-0.00555217 0.00239794 0)
(-0.00206507 0.0123526 0)
(0.00137858 0.00573367 0)
(0.00332806 0.00737843 0)
(0.00508115 0.00542979 0)
(0.00539489 -0.00654294 0)
(0.00320819 -0.011248 0)
(-0.000841409 -0.0110867 0)
(-0.00246759 0.000506556 0)
(-0.00288735 0.000512696 0)
(-0.00486999 0.00420868 0)
(-0.00283884 0.0116536 0)
(0.00142616 0.0138092 0)
(0.00518644 0.00891392 0)
(0.00596642 -0.0053527 0)
(0.0023347 -0.0141527 0)
(-0.00266109 -0.011028 0)
(-0.00253401 -0.00152032 0)
(-0.00215325 -0.00568021 0)
(-0.00519871 -0.00410276 0)
(-0.0060648 0.00231972 0)
(-0.00167171 0.00860724 0)
(0.000718519 0.00370091 0)
(0.00304647 0.00506987 0)
(0.00537045 0.00282695 0)
(0.0054281 -0.00375968 0)
(0.00236403 -0.00732703 0)
(-0.00172706 -0.00651198 0)
(-0.00309807 -0.000437321 0)
(-0.00279773 0.00150857 0)
(-0.00336185 0.00463686 0)
(-0.00193607 0.0085856 0)
(0.00164109 0.00918375 0)
(0.00518156 0.00514144 0)
(0.00562957 -0.00282694 0)
(0.00225478 -0.0082391 0)
(-0.00177864 -0.00771924 0)
(-0.00224939 -0.0033255 0)
(-0.00194492 -0.003847 0)
(-0.00362348 -0.00214971 0)
(-0.00414397 0.00156802 0)
(-0.00100796 0.00383762 0)
(0.000381111 0.00202003 0)
(0.00219856 0.00313529 0)
(0.00390392 0.00160188 0)
(0.00387959 -0.0021034 0)
(0.00158047 -0.00431354 0)
(-0.001321 -0.00363862 0)
(-0.00244247 -0.000240367 0)
(-0.00227874 0.00178625 0)
(-0.00220653 0.00396894 0)
(-0.00100021 0.00612451 0)
(0.00148845 0.00624561 0)
(0.00385231 0.00339675 0)
(0.00413664 -0.00152548 0)
(0.00196976 -0.00504016 0)
(-0.000717461 -0.00530554 0)
(-0.00148679 -0.00336633 0)
(-0.00153766 -0.0029501 0)
(-0.00233659 -0.00163853 0)
(-0.00239713 0.000490622 0)
(-0.00058417 0.00164054 0)
(0.000199894 0.00103717 0)
(0.00135672 0.00172882 0)
(0.002414 0.000846794 0)
(0.00239593 -0.00114304 0)
(0.000994814 -0.0023481 0)
(-0.000782969 -0.00186699 0)
(-0.00160114 0.000108979 0)
(-0.00157456 0.00175078 0)
(-0.00133437 0.00332433 0)
(-0.00043891 0.0045212 0)
(0.00112072 0.00433308 0)
(0.00253775 0.00230754 0)
(0.00273267 -0.000810242 0)
(0.00151484 -0.00318502 0)
(-8.5888e-05 -0.00377593 0)
(-0.000809109 -0.00299319 0)
(-0.00103507 -0.00248517 0)
(-0.00138392 -0.00150546 0)
(-0.00127175 -0.000209839 0)
(-0.000297233 0.000529501 0)
(9.71014e-05 0.000477136 0)
(0.000752889 0.000900331 0)
(0.00133075 0.000422503 0)
(0.00130439 -0.000615173 0)
(0.000562381 -0.00120685 0)
(-0.000400163 -0.000836092 0)
(-0.000914324 0.000416401 0)
(-0.000933415 0.00169157 0)
(-0.000723884 0.00283266 0)
(-0.000154086 0.00352713 0)
(0.000717072 0.00321247 0)
(0.00148521 0.00168717 0)
(0.00158939 -0.000458096 0)
(0.000990581 -0.00216246 0)
(0.000135133 -0.00283947 0)
(-0.000361511 -0.00261368 0)
(-0.000570535 -0.00221001 0)
(-0.000716175 -0.00149277 0)
(-0.000601772 -0.00062387 0)
(-0.000132782 -7.77017e-06 0)
(6.94459e-05 0.000118826 0)
(0.000431761 0.00044109 0)
(0.000698778 0.000195368 0)
(0.00047349 -0.000315313 0)
(0.000195397 -0.000563189 0)
(-0.000156507 -0.000260041 0)
(-0.000498359 0.000597861 0)
(-0.000522624 0.00161338 0)
(-0.000373693 0.00248555 0)
(-3.4031e-05 0.00294028 0)
(0.00041992 0.00261246 0)
(0.00077514 0.00136467 0)
(0.000585994 -0.000265939 0)
(0.000379572 -0.00162982 0)
(8.87615e-05 -0.00234244 0)
(-9.48582e-05 -0.00235942 0)
(-0.000178534 -0.00206142 0)
(-0.000219923 -0.00149258 0)
(-0.000176459 -0.00081575 0)
(-3.76428e-05 -0.000230808 0)
)
;

boundaryField
{
    top
    {
        type            pressureInletOutletVelocity;
        value           nonuniform List<vector> 
20
(
(6.94459e-05 0.000118826 0)
(0.000431761 0.00044109 0)
(0.000698778 0.000195368 0)
(0 -0.000315313 0)
(0 -0.000563189 0)
(0 -0.000260041 0)
(-0.000498359 0.000597861 0)
(-0.000522624 0.00161338 0)
(-0.000373693 0.00248555 0)
(-3.4031e-05 0.00294028 0)
(0.00041992 0.00261246 0)
(0.00077514 0.00136467 0)
(0 -0.000265939 0)
(0 -0.00162982 0)
(0 -0.00234244 0)
(0 -0.00235942 0)
(0 -0.00206142 0)
(0 -0.00149258 0)
(0 -0.00081575 0)
(0 -0.000230808 0)
)
;
    }
    left
    {
        type            noSlip;
    }
    right
    {
        type            noSlip;
    }
    bottom
    {
        type            noSlip;
    }
    front
    {
        type            empty;
    }
    back
    {
        type            empty;
    }
    frontAndBack
    {
        type            empty;
    }
}


// ************************************************************************* //
