/*--------------------------------*- C++ -*----------------------------------*\
  =========                 |
  \\      /  F ield         | OpenFOAM: The Open Source CFD Toolbox
   \\    /   O peration     | Website:  https://openfoam.org
    \\  /    A nd           | Version:  10
     \\/     M anipulation  |
\*---------------------------------------------------------------------------*/
FoamFile
{
    format      ascii;
    class       surfaceScalarField;
    location    "0.06";
    object      alphaPhi.water;
}
// * * * * * * * * * * * * * * * * * * * * * * * * * * * * * * * * * * * * * //

dimensions      [0 3 -1 0 0 0 0];

internalField   nonuniform List<scalar> 
1540
(
7.62693e-14
-7.60742e-14
3.26523e-13
-2.50034e-13
6.97894e-13
-3.71144e-13
1.05848e-12
-3.60359e-13
1.29427e-12
-2.35544e-13
1.35154e-12
-5.70465e-14
1.19606e-12
1.55719e-13
8.7686e-13
3.19421e-13
4.22609e-13
4.5448e-13
-8.70864e-14
5.09927e-13
-5.81479e-13
4.94622e-13
-1.01146e-12
4.30204e-13
-1.30353e-12
2.92305e-13
-1.44051e-12
1.37214e-13
-1.35284e-12
-8.74482e-14
-1.07282e-12
-2.79794e-13
-6.74389e-13
-3.98213e-13
-3.28828e-13
-3.45308e-13
-5.95333e-14
-2.69046e-13
-5.9407e-14
2.80336e-13
-3.56191e-13
9.33376e-13
-9.02832e-13
1.74819e-12
-1.18569e-12
2.49053e-12
-1.10244e-12
2.97486e-12
-7.19615e-13
3.08032e-12
-1.62246e-13
2.69108e-12
5.45196e-13
1.93696e-12
1.0738e-12
8.934e-13
1.4983e-12
-2.58141e-13
1.66172e-12
-1.39432e-12
1.63103e-12
-2.38649e-12
1.42264e-12
-3.09058e-12
9.96656e-13
-3.35874e-12
4.05625e-13
-3.18486e-12
-2.61073e-13
-2.64221e-12
-8.2222e-13
-1.84198e-12
-1.19818e-12
-9.53428e-13
-1.2336e-12
-2.70164e-13
-9.52049e-13
-3.29444e-13
4.33841e-13
-7.89804e-13
1.40629e-12
-1.87502e-12
2.50561e-12
-2.28475e-12
3.48239e-12
-2.07896e-12
4.08112e-12
-1.31809e-12
4.12475e-12
-2.0561e-13
3.69343e-12
9.76786e-13
2.65331e-12
2.11419e-12
1.2625e-12
2.88937e-12
-3.39958e-13
3.26443e-12
-1.92928e-12
3.22062e-12
-3.27687e-12
2.77049e-12
-4.22088e-12
1.94093e-12
-4.59736e-12
7.82362e-13
-4.42601e-12
-4.32167e-13
-3.69912e-12
-1.54885e-12
-2.61935e-12
-2.27769e-12
-1.42413e-12
-2.42856e-12
-4.37214e-13
-1.9387e-12
-7.66533e-13
5.79256e-13
-1.36881e-12
1.74182e-12
-3.03733e-12
3.04398e-12
-3.58665e-12
4.19316e-12
-3.22788e-12
4.88666e-12
-2.01132e-12
4.95026e-12
-2.6894e-13
4.2953e-12
1.63201e-12
3.10185e-12
3.3079e-12
1.46206e-12
4.52942e-12
-4.06233e-13
5.13299e-12
-2.25774e-12
5.07238e-12
-3.8392e-12
4.35222e-12
-4.93273e-12
3.03471e-12
-5.45963e-12
1.30951e-12
-5.26333e-12
-6.28205e-13
-4.44275e-12
-2.36917e-12
-3.16675e-12
-3.55344e-12
-1.73214e-12
-3.86291e-12
-5.44088e-13
-3.12649e-12
-1.3105e-12
6.12382e-13
-1.98098e-12
1.85713e-12
-4.28184e-12
3.36588e-12
-5.09516e-12
4.66611e-12
-4.52784e-12
5.44291e-12
-2.78786e-12
5.49119e-12
-3.16952e-13
4.75939e-12
2.36404e-12
3.39921e-12
4.66835e-12
1.59124e-12
6.33766e-12
-4.52562e-13
7.17705e-12
-2.4799e-12
7.09998e-12
-4.22637e-12
6.09894e-12
-5.48087e-12
4.28947e-12
-6.04451e-12
1.87338e-12
-5.87657e-12
-7.95869e-13
-4.9852e-12
-3.26028e-12
-3.56718e-12
-4.97121e-12
-1.9535e-12
-5.4763e-12
-6.08704e-13
-4.47106e-12
-1.91908e-12
6.22077e-13
-2.60282e-12
1.99915e-12
-5.65869e-12
3.64203e-12
-6.73779e-12
4.98699e-12
-5.87253e-12
5.75296e-12
-3.55357e-12
5.79248e-12
-3.56189e-13
5.04435e-12
3.11241e-12
3.58847e-12
6.12447e-12
1.68746e-12
8.23892e-12
-4.76461e-13
9.34124e-12
-2.61243e-12
9.23622e-12
-4.46712e-12
7.95389e-12
-5.76543e-12
5.58804e-12
-6.50194e-12
2.61011e-12
-6.3148e-12
-9.82745e-13
-5.3619e-12
-4.21292e-12
-3.8528e-12
-6.48005e-12
-2.13418e-12
-7.19466e-12
-6.76283e-13
-5.92872e-12
-2.59524e-12
6.81197e-13
-3.2838e-12
2.12433e-12
-7.1016e-12
3.75667e-12
-8.36986e-12
5.13629e-12
-7.2519e-12
5.91714e-12
-4.33415e-12
5.92347e-12
-3.62258e-13
5.15317e-12
3.88295e-12
3.68936e-12
7.58852e-12
1.72465e-12
1.02039e-11
-4.95839e-13
1.1562e-11
-2.68538e-12
1.1426e-11
-4.56986e-12
9.83863e-12
-6.02307e-12
7.04147e-12
-6.61494e-12
3.20223e-12
-6.47877e-12
-1.11869e-12
-5.50559e-12
-5.18582e-12
-3.97202e-12
-8.01336e-12
-2.2205e-12
-8.94588e-12
-7.05513e-13
-7.44348e-12
-3.30063e-12
6.41992e-13
-3.92557e-12
2.10689e-12
-8.56623e-12
3.70964e-12
-9.97234e-12
5.04716e-12
-8.58914e-12
5.79831e-12
-5.08504e-12
5.79006e-12
-3.53759e-13
5.04786e-12
4.62538e-12
3.66062e-12
8.97599e-12
1.69748e-12
1.21673e-11
-5.12807e-13
1.37726e-11
-2.67611e-12
1.35896e-11
-4.5416e-12
1.17044e-11
-5.92339e-12
8.4235e-12
-6.59641e-12
3.87547e-12
-6.29943e-12
-1.41542e-12
-5.36499e-12
-6.12e-12
-3.87946e-12
-9.49861e-12
-2.16606e-12
-1.0659e-11
-6.93186e-13
-8.91614e-12
-3.9937e-12
6.7766e-13
-4.60296e-12
1.95083e-12
-9.83913e-12
3.42601e-12
-1.14472e-11
4.66989e-12
-9.8328e-12
5.36195e-12
-5.7769e-12
5.36648e-12
-3.58066e-13
4.73318e-12
5.25892e-12
3.40395e-12
1.03055e-11
1.56683e-12
1.40047e-11
-4.62278e-13
1.58019e-11
-2.46621e-12
1.55938e-11
-4.26102e-12
1.34995e-11
-5.45596e-12
9.61862e-12
-5.9126e-12
4.33233e-12
-5.73751e-12
-1.59027e-12
-4.89822e-12
-6.95903e-12
-3.56044e-12
-1.08361e-11
-1.99245e-12
-1.22268e-11
-6.18218e-13
-1.02901e-11
-4.6118e-12
5.00492e-13
-5.10326e-12
1.54413e-12
-1.08825e-11
2.77785e-12
-1.26808e-11
3.83339e-12
-1.08881e-11
4.52423e-12
-6.46751e-12
4.60186e-12
-4.35491e-13
3.99335e-12
5.86767e-12
2.78548e-12
1.15136e-11
1.23099e-12
1.55594e-11
-5.33861e-13
1.7567e-11
-2.29492e-12
1.73551e-11
-3.76664e-12
1.49714e-11
-4.74629e-12
1.05985e-11
-5.07718e-12
4.66345e-12
-4.85172e-12
-1.81553e-12
-4.04109e-12
-7.76946e-12
-2.96064e-12
-1.19164e-11
-1.6749e-12
-1.35123e-11
-5.11272e-13
-1.14535e-11
-5.12295e-12
3.78491e-13
-5.48155e-12
1.07027e-12
-1.15741e-11
1.90478e-12
-1.3515e-11
2.82426e-12
-1.18074e-11
3.4557e-12
-7.09872e-12
3.55949e-12
-5.39042e-13
3.07925e-12
6.34815e-12
2.09383e-12
1.24992e-11
8.17709e-13
1.68358e-11
-5.93571e-13
1.89785e-11
-1.97367e-12
1.87354e-11
-3.08914e-12
1.60871e-11
-3.85511e-12
1.13647e-11
-4.10678e-12
4.91534e-12
-3.73475e-12
-2.18734e-12
-3.02492e-12
-8.47911e-12
-2.09993e-12
-1.28412e-11
-1.15459e-12
-1.44574e-11
-4.71378e-13
-1.21365e-11
-5.59422e-12
2.50419e-13
-5.73179e-12
6.67647e-13
-1.19911e-11
1.21389e-12
-1.40611e-11
1.70681e-12
-1.23001e-11
2.08799e-12
-7.47968e-12
2.20702e-12
-6.57835e-13
1.90206e-12
6.65334e-12
1.22776e-12
1.31738e-11
3.32797e-13
1.77309e-11
-6.49525e-13
1.9961e-11
-1.58157e-12
1.96677e-11
-2.32718e-12
1.68329e-11
-2.72402e-12
1.17618e-11
-2.6834e-12
4.87498e-12
-2.31444e-12
-2.55608e-12
-1.72962e-12
-9.06371e-12
-1.085e-12
-1.34856e-11
-5.12193e-13
-1.503e-11
-8.71904e-14
-1.25613e-11
-5.6813e-12
6.53033e-14
-5.7969e-12
9.06922e-14
-1.20163e-11
1.7961e-13
-1.41498e-11
2.5288e-13
-1.23731e-11
3.91853e-13
-7.61843e-12
4.65866e-13
-7.31637e-13
3.09566e-13
6.8099e-12
2.86154e-14
1.34549e-11
-3.49457e-13
1.81092e-11
-7.43222e-13
2.0355e-11
-1.0859e-12
2.00105e-11
-1.27537e-12
1.70226e-11
-1.23596e-12
1.17226e-11
-9.92298e-13
4.63155e-12
-6.47067e-13
-2.9011e-12
-3.02532e-13
-9.40803e-12
-6.15304e-14
-1.37264e-11
-1.41184e-14
-1.50772e-11
3.76294e-14
-1.26128e-11
-5.64357e-12
-1.64264e-13
-5.63245e-12
-4.98143e-13
-1.16823e-11
-1.01082e-12
-1.3637e-11
-1.36584e-12
-1.20179e-11
-1.53502e-12
-7.44904e-12
-1.49004e-12
-7.76419e-13
-1.43251e-12
6.75256e-12
-1.2527e-12
1.32754e-11
-1.07123e-12
1.79279e-11
-8.65881e-13
2.01498e-11
-5.80558e-13
1.97254e-11
-2.08197e-13
1.66505e-11
2.29444e-13
1.12852e-11
5.8054e-13
4.28063e-12
9.62439e-13
-3.2828e-12
1.06872e-12
-9.51411e-12
7.93463e-13
-1.3451e-11
4.76879e-13
-1.47604e-11
1.75509e-13
-1.23112e-11
-5.46797e-12
-3.72057e-13
-5.26022e-12
-1.14088e-12
-1.09133e-11
-2.12959e-12
-1.26481e-11
-2.96899e-12
-1.11783e-11
-3.41845e-12
-6.99938e-12
-3.40246e-12
-7.92213e-13
-3.05864e-12
6.40893e-12
-2.5598e-12
1.27768e-11
-1.83013e-12
1.71985e-11
-1.00205e-12
1.9322e-11
-1.2333e-13
1.88469e-11
7.4603e-13
1.57814e-11
1.55021e-12
1.04812e-11
2.20954e-12
3.62147e-12
2.42156e-12
-3.49461e-12
2.30447e-12
-9.39683e-12
1.89051e-12
-1.30368e-11
1.119e-12
-1.39888e-11
3.42414e-13
-1.15345e-11
-5.12546e-12
-5.49647e-13
-4.71042e-12
-1.73994e-12
-9.72281e-12
-3.11633e-12
-1.12715e-11
-4.28185e-12
-1.00126e-11
-5.01741e-12
-6.26365e-12
-5.13129e-12
-6.78146e-13
-4.58562e-12
5.86344e-12
-3.62876e-12
1.18201e-11
-2.4931e-12
1.60632e-11
-1.13385e-12
1.7963e-11
2.99219e-13
1.74142e-11
1.67575e-12
1.44051e-11
2.87047e-12
9.28668e-12
3.71457e-12
2.77754e-12
3.87814e-12
-3.65797e-12
3.46165e-12
-8.98017e-12
2.65093e-12
-1.22259e-11
1.55784e-12
-1.28955e-11
5.35835e-13
-1.05123e-11
-4.58954e-12
-6.74814e-13
-4.03546e-12
-2.13773e-12
-8.25974e-12
-3.82915e-12
-9.57995e-12
-5.34383e-12
-8.49781e-12
-6.37158e-12
-5.23574e-12
-6.64099e-12
-4.0854e-13
-5.99246e-12
5.21508e-12
-4.76662e-12
1.05944e-11
-3.14983e-12
1.44466e-11
-1.3269e-12
1.61403e-11
5.90454e-13
1.5497e-11
2.3875e-12
1.26082e-11
3.90693e-12
7.76741e-12
4.78098e-12
1.90364e-12
4.88746e-12
-3.76429e-12
4.27759e-12
-8.37016e-12
3.16417e-12
-1.11123e-11
1.82999e-12
-1.15612e-11
6.21349e-13
-9.30355e-12
-3.96812e-12
-7.48776e-13
-3.28655e-12
-2.34663e-12
-6.66175e-12
-4.23766e-12
-7.68877e-12
-5.99327e-12
-6.74206e-12
-7.18435e-12
-4.04452e-12
-7.57159e-12
-2.11228e-14
-7.06469e-12
4.70835e-12
-5.66375e-12
9.19359e-12
-3.74371e-12
1.25267e-11
-1.52952e-12
1.39263e-11
7.44213e-13
1.32234e-11
2.83964e-12
1.05129e-11
4.44057e-12
6.16664e-12
5.26727e-12
1.07711e-12
5.30302e-12
-3.79989e-12
4.58855e-12
-7.65556e-12
3.36036e-12
-9.88402e-12
1.92562e-12
-1.01263e-11
6.41818e-13
-8.01961e-12
-3.32623e-12
-7.55933e-13
-2.53049e-12
-2.38903e-12
-5.02852e-12
-4.32814e-12
-5.74953e-12
-6.13172e-12
-4.93836e-12
-7.40507e-12
-2.77102e-12
-7.91274e-12
4.86694e-13
-7.50208e-12
4.29784e-12
-6.17881e-12
7.87046e-12
-4.13853e-12
1.04865e-11
-1.76045e-12
1.15483e-11
6.67804e-13
1.07953e-11
2.83504e-12
8.34581e-12
4.39809e-12
4.60372e-12
5.17908e-12
2.96244e-13
5.14895e-12
-3.76964e-12
4.42517e-12
-6.93166e-12
3.23042e-12
-8.68915e-12
1.84652e-12
-8.7423e-12
6.19576e-13
-6.79254e-12
-2.7066e-12
-7.20505e-13
-1.80987e-12
-2.29543e-12
-3.45348e-12
-4.17374e-12
-3.8711e-12
-5.93656e-12
-3.17542e-12
-7.24278e-12
-1.46467e-12
-7.81458e-12
1.05862e-12
-7.47727e-12
3.96065e-12
-6.26234e-12
6.65566e-12
-4.33531e-12
8.55961e-12
-2.01032e-12
9.22345e-12
3.50834e-13
8.43425e-12
2.4132e-12
6.28357e-12
3.88103e-12
3.136e-12
4.59698e-12
-4.19589e-13
4.56536e-12
-3.7379e-12
3.91158e-12
-6.27777e-12
2.85478e-12
-7.63225e-12
1.63507e-12
-7.52248e-12
5.55156e-13
-5.71253e-12
-2.15139e-12
-6.65233e-13
-1.14454e-12
-2.12678e-12
-1.99183e-12
-3.87814e-12
-2.11963e-12
-5.5414e-12
-1.51206e-12
-6.79236e-12
-2.13604e-13
-7.3714e-12
1.63777e-12
-7.12349e-12
3.71284e-12
-6.06176e-12
5.59404e-12
-4.34495e-12
6.8429e-12
-2.25201e-12
7.13061e-12
-1.18623e-13
6.30096e-12
1.73102e-12
4.43402e-12
3.04407e-12
1.82305e-12
3.69331e-12
-1.06873e-12
3.70263e-12
-3.74713e-12
3.18574e-12
-5.76078e-12
2.33231e-12
-6.77872e-12
1.3441e-12
-6.53417e-12
4.68096e-13
-4.83642e-12
-1.68325e-12
-6.06664e-13
-5.37782e-13
-1.9366e-12
-6.61795e-13
-3.52924e-12
-5.26881e-13
-5.04019e-12
-1.0083e-15
-6.17571e-12
9.22022e-13
-6.72059e-12
2.18275e-12
-6.54596e-12
3.53832e-12
-5.66602e-12
4.7142e-12
-4.2108e-12
5.38778e-12
-2.42818e-12
5.34809e-12
-6.05169e-13
4.47805e-12
9.75797e-13
2.85315e-12
2.10827e-12
6.90668e-13
2.69214e-12
-1.65251e-12
2.75628e-12
-3.81119e-12
2.39159e-12
-5.396e-12
1.76087e-12
-6.14792e-12
1.02377e-12
-5.79698e-12
3.76754e-13
-4.18932e-12
-1.30645e-12
-5.60268e-13
2.25746e-14
-1.76729e-12
5.45327e-13
-3.18959e-12
8.95517e-13
-4.51814e-12
1.32764e-12
-5.48872e-12
1.8927e-12
-5.96494e-12
2.65907e-12
-5.83369e-12
3.40716e-12
-5.12259e-12
4.00319e-12
-3.92124e-12
4.18652e-12
-2.45423e-12
3.88117e-12
-9.5291e-13
2.97682e-12
3.51993e-13
1.54833e-12
1.30075e-12
-2.58002e-13
1.80376e-12
-2.15544e-12
1.90597e-12
-3.91332e-12
1.66358e-12
-5.15354e-12
1.23298e-12
-5.71724e-12
7.24631e-13
-5.28854e-12
2.97012e-13
-3.76161e-12
-1.0094e-12
-5.37785e-13
5.60446e-13
-1.64224e-12
1.64988e-12
-2.89012e-12
2.14349e-12
-4.0172e-12
2.45481e-12
-4.76681e-12
2.64241e-12
-5.13534e-12
3.02769e-12
-5.00218e-12
3.2741e-12
-4.41931e-12
3.42041e-12
-3.40495e-12
3.17225e-12
-2.20067e-12
2.67698e-12
-9.92496e-13
1.76874e-12
6.03817e-14
4.9554e-13
8.31696e-13
-1.02924e-12
1.22813e-12
-2.5518e-12
1.32426e-12
-4.00937e-12
1.13982e-12
-4.96902e-12
8.37961e-13
-5.4153e-12
4.94941e-13
-4.94544e-12
2.57115e-13
-3.52371e-12
-7.52243e-13
-5.20665e-13
1.0812e-12
-1.56865e-12
2.69796e-12
-2.63407e-12
3.20902e-12
-3.54389e-12
3.36473e-12
-3.93774e-12
3.03635e-12
-4.16966e-12
3.25971e-12
-3.96668e-12
3.07122e-12
-3.48672e-12
2.94055e-12
-2.52168e-12
2.20729e-12
-1.46883e-12
1.62423e-12
-5.10115e-13
8.1011e-13
2.53848e-13
-2.68336e-13
9.22036e-13
-1.69734e-12
1.18275e-12
-2.81243e-12
1.20632e-12
-4.03286e-12
9.69151e-13
-4.73176e-12
7.16973e-13
-5.16304e-12
3.83472e-13
-4.61186e-12
2.73197e-13
-3.41334e-12
-4.79e-13
-5.05667e-13
1.58696e-12
-1.55213e-12
3.74453e-12
-2.54954e-12
4.20653e-12
-3.11009e-12
3.92539e-12
-2.85644e-12
2.78281e-12
-2.9626e-12
3.36597e-12
-2.68967e-12
2.79838e-12
-2.34408e-12
2.59507e-12
-1.25781e-12
1.12112e-12
-2.28332e-13
5.94845e-13
6.18069e-13
-3.61951e-14
1.30357e-12
-9.53742e-13
2.07489e-12
-2.46857e-12
2.0522e-12
-2.78965e-12
1.84346e-12
-3.82402e-12
1.3478e-12
-4.23602e-12
9.74811e-13
-4.78996e-12
3.81282e-13
-4.01824e-12
2.20602e-13
-3.25257e-12
-2.58351e-13
-2.64615e-13
1.85167e-12
-1.47856e-12
4.95858e-12
-2.64796e-12
5.37603e-12
-2.60731e-12
3.88485e-12
-1.28789e-12
1.46349e-12
-9.39636e-13
3.01782e-12
-1.46934e-12
3.32819e-12
-5.47269e-13
1.6731e-12
1.72545e-12
-1.15151e-12
2.19959e-12
1.2081e-13
2.43195e-12
-2.6846e-13
2.86017e-12
-1.38187e-12
4.36095e-12
-3.96925e-12
3.88036e-12
-2.30898e-12
3.30004e-12
-3.24361e-12
2.42763e-12
-3.36352e-12
2.42993e-12
-4.79217e-12
8.54201e-13
-2.44241e-12
2.70276e-13
-2.66855e-12
1.19667e-14
4.70315e-13
1.38141e-12
-2.18801e-12
7.61699e-12
-4.6092e-12
7.7973e-12
-3.01151e-12
2.28725e-12
1.49807e-12
-3.046e-12
1.79988e-12
2.7161e-12
-2.52811e-13
5.38096e-12
1.61721e-12
-1.96838e-13
7.01626e-12
-6.55048e-12
6.22878e-12
9.08372e-13
3.0102e-12
2.9502e-12
4.09384e-12
-2.46544e-12
9.23124e-12
-9.1066e-12
7.33602e-12
-4.13667e-13
2.83972e-12
1.25275e-12
3.39628e-12
-3.92e-12
6.79475e-12
-8.19057e-12
1.70697e-12
2.64545e-12
-2.10308e-12
1.14157e-12
-2.09109e-12
7.6786e-12
-6.29702e-12
-4.85222e-13
1.5781e-11
-1.11064e-11
1.84185e-11
-2.31455e-12
-6.50462e-12
1.07947e-11
-1.61539e-11
6.22186e-12
7.28861e-12
-4.9915e-12
1.65944e-11
5.00003e-12
-1.01882e-11
2.02416e-11
-2.17878e-11
1.60174e-11
5.12861e-12
-1.79427e-12
2.07366e-11
6.0041e-12
-1.0263e-11
2.52171e-11
-2.83118e-11
1.88363e-11
5.96446e-12
-4.37696e-12
2.44537e-11
6.02063e-12
-1.43132e-11
2.28997e-11
-2.50635e-11
4.41781e-12
2.11265e-11
-1.89746e-11
2.45298e-11
-2.10644e-11
2.68078e-11
-1.84428e-11
3.32188e-12
2.2206e-11
-3.10077e-11
2.9802e-11
-2.83347e-12
-1.94339e-11
3.34553e-11
-2.82633e-11
1.34314e-11
1.56695e-11
-2.63375e-11
3.16155e-11
-2.27351e-12
-1.90078e-11
4.52819e-11
-3.70708e-11
2.37098e-11
1.5295e-11
-2.80078e-11
4.02974e-11
-6.87057e-12
-1.73286e-11
5.27285e-11
-4.6998e-11
2.84004e-11
1.74439e-11
-4.13505e-11
5.26343e-11
-6.90909e-12
-2.68866e-11
6.55235e-11
-5.26467e-11
1.33424e-11
4.09923e-11
-6.1585e-11
5.56175e-11
-4.54605e-11
4.51628e-12
-1.33538e-13
8.71098e-13
1.35265e-13
-4.14883e-12
2.04877e-13
-3.53181e-13
-2.35337e-13
3.43606e-12
-7.64289e-14
-1.04806e-12
0
-7.02945e-12
2.63609e-13
-2.40912e-12
-5.15386e-13
3.89398e-12
-7.52295e-14
4.72954e-13
0
-8.17081e-12
5.53397e-13
-3.15453e-12
-1.13072e-12
5.64408e-12
-1.44998e-13
2.36471e-12
0
-9.00323e-12
8.93689e-13
-2.73923e-12
-4.19072e-13
7.32089e-12
-1.20065e-12
1.69841e-12
7.21366e-13
-9.20998e-12
1.02434e-12
-1.09001e-12
-8.60893e-14
-3.95888e-16
-1.62139e-14
0
1.14811e-13
0
-1.29664e-16
-1.3414e-15
-7.86026e-14
-1.162e-15
-7.35327e-14
0
6.68528e-14
0
2.383e-15
-1.51395e-14
-6.98132e-14
-2.42777e-15
-2.19961e-13
0
1.51728e-13
0
3.20159e-15
-1.61163e-14
-1.28124e-13
-1.07742e-14
-2.67659e-13
0
1.81354e-13
0
9.0065e-16
-2.48734e-14
-1.4344e-13
-4.27637e-14
-2.20103e-14
0
6.36806e-13
0
-7.79444e-15
-3.69322e-16
-5.15328e-20
-3.30944e-16
0
5.55491e-16
0
-4.73167e-18
0
-5.14002e-15
3.13466e-18
-1.40025e-15
0
-1.19016e-16
0
-2.618e-16
-1.71128e-15
-4.24686e-15
-2.37473e-16
1.40867e-15
0
-7.94899e-15
9.50043e-17
-1.88185e-15
-3.71585e-15
-6.36012e-15
-4.02483e-16
-1.03459e-15
0
-2.61333e-15
0
-2.08634e-15
-4.37924e-15
-7.39853e-15
-7.1856e-17
1.22232e-14
-3.43543e-15
2.57748e-15
0
0
-5.50873e-19
2.00721e-22
-2.83568e-19
0
1.77042e-19
0
-4.06875e-19
0
-4.54458e-18
0
-3.07063e-18
0
3.87846e-18
0
-1.17132e-18
-7.30426e-18
-1.00618e-16
-1.29937e-18
-4.22463e-17
0
3.6611e-17
0
1.70961e-19
-3.20022e-17
-1.55546e-16
-1.73042e-18
-1.23378e-16
0
9.29687e-17
0
2.67771e-17
-2.6343e-17
-4.69694e-17
-7.42542e-19
-8.42208e-17
-2.47637e-17
3.34558e-17
0
0
-1.51669e-20
3.36677e-21
1.35728e-20
3.03343e-23
1.70656e-21
0
2.65443e-21
0
5.51796e-22
0
2.52478e-20
0
1.13245e-20
0
-9.33308e-22
-1.10887e-22
-1.02025e-18
-1.65287e-21
-1.15659e-19
0
2.22966e-19
0
1.53309e-19
-1.43029e-19
-1.57038e-18
-4.31578e-21
-5.8926e-19
-3.62116e-22
3.24829e-19
0
1.11256e-20
-3.20569e-22
-2.67394e-18
-2.76082e-21
-5.89033e-19
-1.24566e-22
-3.87915e-19
0
0
2.50062e-24
0
3.52056e-23
0
5.47457e-24
9.72299e-25
3.35931e-23
0
7.06105e-24
3.06127e-26
1.59995e-22
0
9.84754e-23
9.98033e-25
-9.72176e-24
-7.75923e-25
-2.1826e-21
1.22865e-24
-1.75419e-22
0
1.09073e-21
0
4.27388e-22
-6.15572e-23
-4.13038e-23
-2.26448e-22
-2.64651e-22
-7.11245e-23
4.98365e-22
-2.33226e-22
2.96772e-23
-4.26044e-22
-8.2987e-23
-1.17536e-21
-1.05212e-21
-3.99924e-22
-2.4218e-21
0
0
8.62458e-27
1.61462e-28
1.37534e-25
2.76779e-27
2.97979e-25
6.2468e-26
4.55877e-25
4.34906e-26
2.22506e-26
4.86236e-27
4.82772e-25
1.51355e-26
3.25702e-25
3.77708e-26
7.76909e-25
4.67434e-25
-2.9213e-24
7.55384e-25
1.03593e-23
8.16118e-25
4.11569e-23
3.97404e-24
7.23184e-24
-2.28264e-25
3.82724e-24
-2.14503e-23
3.39478e-24
-8.54758e-24
9.12969e-23
-1.74788e-23
1.66362e-23
-1.75639e-23
-1.14905e-22
-1.99438e-23
-5.62469e-25
-1.06198e-23
-1.2303e-23
-9.91156e-26
3.76369e-26
8.85852e-30
1.5531e-29
3.71552e-28
2.19324e-28
3.66839e-27
3.91467e-28
9.76047e-27
9.25927e-28
2.27563e-27
6.39346e-28
1.53978e-26
4.19818e-28
6.30138e-26
7.22536e-27
3.40445e-25
2.76942e-25
1.95898e-25
1.12641e-25
2.17391e-25
2.07109e-25
2.65286e-24
4.78845e-25
4.65866e-24
1.79074e-25
4.61356e-24
-1.38865e-24
1.33151e-24
-8.99825e-25
2.93517e-24
-5.87705e-25
3.03953e-25
-4.93722e-25
-2.12613e-24
-1.07508e-24
-7.79653e-26
-2.53642e-25
-4.50309e-26
-3.44803e-26
-1.51991e-28
1.52636e-30
4.56483e-30
3.03779e-29
3.83834e-29
5.23969e-29
1.11494e-29
2.9602e-29
2.51931e-30
1.45611e-29
4.08642e-29
2.9166e-29
4.09268e-29
2.64405e-28
4.28082e-29
6.16043e-27
1.27829e-28
2.942e-26
5.12492e-27
1.19386e-25
8.97065e-26
3.80946e-25
1.00119e-25
5.53706e-25
2.50077e-26
4.11098e-25
-6.38026e-26
7.80221e-26
-4.63267e-26
3.793e-26
-4.81224e-26
8.48172e-27
-5.41678e-26
-2.21074e-26
-4.86435e-26
-1.02634e-26
-1.3772e-26
-1.43097e-28
-2.46727e-27
-2.64799e-28
2.10085e-31
2.78138e-31
2.10815e-31
2.39442e-31
1.12449e-31
1.1743e-31
2.64667e-31
1.06016e-29
6.01782e-28
9.44775e-27
1.97942e-26
2.03484e-26
4.57494e-27
1.51798e-27
1.02983e-27
2.83322e-28
-2.14271e-28
-6.53858e-29
-3.25604e-29
)
;

boundaryField
{
    top
    {
        type            calculated;
        value           nonuniform List<scalar> 
20
(
2.05606e-30
3.30072e-30
2.07176e-30
1.29588e-30
4.71791e-31
4.02428e-31
6.03734e-31
1.7904e-29
1.07451e-27
1.78284e-26
2.9754e-26
1.03189e-26
0
0
0
0
0
0
0
0
)
;
    }
    left
    {
        type            calculated;
        value           uniform 0;
    }
    right
    {
        type            calculated;
        value           uniform 0;
    }
    bottom
    {
        type            calculated;
        value           nonuniform List<scalar> 
20
(
-2.46517e-32
0
0
0
0
0
0
0
0
0
0
0
0
0
0
0
0
0
0
0
)
;
    }
    front
    {
        type            empty;
        value           nonuniform List<scalar> 0();
    }
    back
    {
        type            empty;
        value           nonuniform List<scalar> 0();
    }
    frontAndBack
    {
        type            empty;
        value           nonuniform List<scalar> 0();
    }
}


// ************************************************************************* //
