/*--------------------------------*- C++ -*----------------------------------*\
  =========                 |
  \\      /  F ield         | OpenFOAM: The Open Source CFD Toolbox
   \\    /   O peration     | Website:  https://openfoam.org
    \\  /    A nd           | Version:  10
     \\/     M anipulation  |
\*---------------------------------------------------------------------------*/
FoamFile
{
    format      ascii;
    class       volScalarField;
    location    "0.06";
    object      alpha.water;
}
// * * * * * * * * * * * * * * * * * * * * * * * * * * * * * * * * * * * * * //

dimensions      [0 0 0 0 0 0 0];

internalField   nonuniform List<scalar> 
800
(
0.999991
0.999991
0.99999
0.99999
0.999989
0.999989
0.99999
0.99999
0.99999
0.99999
0.99999
0.99999
0.99999
0.999989
0.99999
0.99999
0.99999
0.999988
0.999989
0.999994
0.999991
0.99999
0.999988
0.999988
0.999988
0.999988
0.99999
0.999988
0.999988
0.99999
0.99999
0.999989
0.999988
0.999988
0.999989
0.99999
0.999988
0.999988
0.999988
0.999995
0.99999
0.999988
0.999988
0.999988
0.999988
0.999988
0.999988
0.999988
0.999988
0.999988
0.999988
0.999988
0.999988
0.999988
0.999989
0.999988
0.999988
0.999988
0.999988
0.999995
0.999988
0.999988
0.999988
0.999988
0.999988
0.999988
0.999989
0.999988
0.999988
0.999988
0.999988
0.999988
0.999988
0.999989
0.999989
0.999988
0.999988
0.999988
0.99999
0.999995
0.99999
0.99999
0.999988
0.999988
0.999988
0.999988
0.99999
0.999989
0.999988
0.999988
0.999988
0.999988
0.999988
0.999992
0.999988
0.999988
0.999988
0.999988
0.999991
0.999995
0.999991
0.999991
0.999991
0.999988
0.999988
0.999989
0.99999
0.99999
0.999988
0.999988
0.999988
0.999988
0.999988
0.999992
0.999989
0.999988
0.999988
0.999988
0.999991
0.999995
0.999991
0.999991
0.999988
0.999988
0.999988
0.999989
0.99999
0.99999
0.999988
0.999988
0.999988
0.999988
0.999992
0.999992
0.99999
0.999988
0.999988
0.999988
0.99999
0.999996
0.999991
0.999988
0.999988
0.999988
0.999988
0.99999
0.99999
0.99999
0.999988
0.999989
0.999988
0.999988
0.999992
0.999992
0.999989
0.999988
0.999988
0.999988
0.999992
0.999996
0.999988
0.999988
0.999988
0.999988
0.999991
0.999992
0.99999
0.999988
0.999989
0.99999
0.99999
0.999988
0.999991
0.999992
0.999992
0.999988
0.999988
0.999989
0.999993
0.999996
0.999989
0.999988
0.99999
0.999994
0.999994
0.999992
0.999988
0.999988
0.99999
0.99999
0.99999
0.99999
0.999989
0.999989
0.999994
0.999994
0.999991
0.999994
0.999991
0.999996
0.999993
0.999993
0.999994
0.999994
0.999994
0.999992
0.999988
0.999988
0.99999
0.99999
0.99999
0.99999
0.999989
0.999989
0.999993
0.999995
0.999995
0.999994
0.999991
0.999996
0.999994
0.999994
0.999994
0.999991
0.999991
0.999991
0.999988
0.999988
0.999989
0.99999
0.99999
0.999989
0.999989
0.999989
0.999992
0.999992
0.999996
0.999992
0.999992
0.999996
0.999994
0.999995
0.999993
0.999991
0.999991
0.999992
0.999993
0.999988
0.999988
0.99999
0.99999
0.999989
0.999989
0.999994
0.999992
0.999992
0.999996
0.999992
0.999994
0.999997
0.999994
0.999996
0.999997
0.999995
0.999991
0.999992
0.999996
0.999991
0.999988
0.999989
0.999989
0.999989
0.999993
0.999995
0.999992
0.999993
0.999996
0.999992
0.999993
0.999997
0.999995
0.999995
0.999997
0.999997
0.999992
0.999992
0.999996
0.999995
0.999989
0.999989
0.999989
0.999989
0.999996
0.999995
0.999992
0.999995
0.999996
0.999997
0.999996
0.999997
0.999996
0.999996
0.999997
0.999997
0.999994
0.999992
0.999996
0.999996
0.999991
0.999989
0.999989
0.999994
0.999996
0.999995
0.999992
0.999995
0.999996
0.999997
0.999997
0.999998
0.999997
0.999998
0.999998
0.999997
0.999996
0.999994
0.999994
0.999996
0.999998
0.999995
0.999996
0.999997
0.999996
0.999995
0.999995
0.999997
0.999998
0.999998
0.999997
0.999999
0.999997
0.999998
0.999998
0.999998
0.999997
0.999995
0.999994
0.999997
0.999998
0.999998
0.999997
0.999998
0.999997
0.999996
0.999997
0.999998
0.999999
0.999999
0.999998
0.999999
0.999998
0.999999
0.999999
0.999999
0.999998
0.999997
0.999997
0.999998
0.999998
0.999998
0.999998
0.999998
0.999998
0.999998
0.999998
0.999999
0.999999
0.999999
0.999999
0.999999
0.999999
0.999999
0.999999
0.999999
0.999999
0.999998
0.999999
0.999999
0.999999
0.999999
0.999999
0.999999
0.999999
0.999999
0.999999
0.999999
1
1
1
1
1
1
1
1
1
0.999999
0.999999
1
1
1
1
1
1
0.999999
1
1
1
1
1
1
1
1
1
1
1
1
1
1
1
1
1
1
1
1
1
1
1
1
1
1
1
1
1
1
1
1
1
1
1
1
1
1
1
1
1
1
1
1
1
1
1
1
1
1
1
1
1
1
1
1
1
1
1
1
1
1
1
1
1
1
1
1
1
1
1
1
1
1
1
1
1
1
1
1
1
1
1
1
1
1
1
1
1
1
1
1
1
1
1
1
1
1
1
1
1
1
1
1
1
1
1
1
1
1
1
1
1
1
1
1
1
1
1
1
0.999999
1
0.999999
0.999999
0.999999
1
1
1
1
1
1
1
1
1
1
1
1
1
0.999999
0.999999
0.999996
0.999998
0.999999
0.999999
1
1
1
1
1
1
1
1
1
1
0.999999
1
1
0.999999
0.999998
0.999999
0.999996
0.999998
0.999998
0.999999
1
0.999999
0.874007
0.879011
0.878589
0.875734
0.868504
0.874045
0.873637
0.871637
0.863344
0.867494
0.870978
0.868095
0.862615
0.868269
0.873008
0.866313
0.864525
0.870199
0.871494
0.86323
0.131459
0.13742
0.137042
0.134128
0.123196
0.134379
0.132024
0.134363
0.118353
0.134114
0.129542
0.13401
0.116789
0.134801
0.13099
0.130092
0.11652
0.13374
0.130752
0.122851
1.80666e-07
2.14436e-05
3.27977e-05
2.06971e-05
5.29106e-06
5.7194e-05
4.44072e-05
2.55997e-05
1.07495e-05
0.000122815
4.14897e-05
7.11e-05
4.43297e-05
0.0001615
0.000124074
0.000138314
6.4192e-05
0.00014493
8.59936e-05
2.60563e-05
5.51668e-08
7.59372e-06
7.40328e-06
2.05004e-05
5.09319e-06
5.68266e-05
9.5034e-06
9.28068e-05
1.04148e-05
8.97382e-05
4.30317e-06
0.00011666
4.30243e-05
0.0001307
1.72122e-05
0.000135998
5.71006e-05
7.68166e-05
1.06972e-05
2.43639e-05
2.95196e-09
8.70149e-08
5.17228e-08
1.03334e-06
3.40681e-08
5.39092e-07
9.57009e-08
3.123e-08
7.44687e-08
1.99251e-06
1.20401e-08
1.94065e-06
3.91359e-10
2.84987e-06
1.58987e-07
1.88e-06
7.97255e-10
6.5994e-07
8.83328e-08
3.08192e-06
1.53019e-09
8.9722e-09
4.86361e-12
2.41141e-11
1.50159e-10
1.19014e-09
1.61218e-11
2.98745e-08
3.33908e-10
3.20031e-08
1.53022e-10
3.04035e-08
3.03312e-11
6.6692e-08
9.84602e-11
1.29823e-11
6.26163e-10
9.71048e-08
3.68631e-10
5.75599e-08
1.11888e-11
6.45598e-14
1.3046e-13
1.4268e-13
3.31353e-13
1.50974e-11
1.27437e-11
2.59675e-13
2.17761e-11
1.79028e-10
6.07611e-11
6.58268e-11
2.95625e-11
6.51296e-12
2.05489e-11
1.29921e-11
1.26266e-11
5.94953e-12
6.0985e-12
1.68628e-10
5.52632e-15
1.89994e-14
8.92048e-14
8.20909e-14
1.27421e-15
4.343e-14
4.98476e-14
2.59557e-13
1.4663e-12
4.03475e-12
5.38071e-12
1.35855e-12
1.39014e-11
6.50762e-12
2.07625e-11
1.99456e-11
4.28894e-11
1.60682e-11
2.2166e-14
2.52283e-12
4.7186e-18
3.94526e-17
7.8465e-16
2.61282e-15
5.15407e-16
1.98711e-15
9.32555e-15
1.39935e-13
1.59347e-13
7.95838e-14
3.76606e-13
7.96345e-13
2.08337e-12
7.07923e-13
1.08359e-12
5.78251e-13
1.04913e-12
3.95197e-13
1.65954e-14
1.93659e-14
4.31397e-18
2.78991e-17
2.99813e-17
1.40508e-17
4.46982e-18
5.11412e-18
5.02999e-17
1.84462e-15
1.22531e-14
3.96286e-14
9.45626e-14
1.90879e-13
1.95879e-13
7.59907e-14
3.34553e-14
1.95407e-14
3.62237e-14
1.0584e-14
3.0366e-15
1.418e-16
6.99909e-19
4.59229e-19
1.91753e-19
1.18005e-19
6.24639e-20
6.24639e-20
6.41889e-20
2.18429e-18
2.27709e-16
4.05513e-15
8.99083e-15
1.40681e-14
7.33605e-15
2.69352e-15
1.91401e-15
1.6625e-15
1.26261e-15
4.13663e-16
1.17878e-16
1.14884e-16
)
;

boundaryField
{
    top
    {
        type            inletOutlet;
        inletValue      uniform 0;
        value           nonuniform List<scalar> 
20
(
6.99909e-19
4.59229e-19
1.91753e-19
1.18005e-19
6.24639e-20
6.24639e-20
6.41889e-20
2.18429e-18
2.27709e-16
4.05513e-15
8.99083e-15
1.40681e-14
0
0
0
0
0
0
0
0
)
;
    }
    left
    {
        type            zeroGradient;
    }
    right
    {
        type            zeroGradient;
    }
    bottom
    {
        type            zeroGradient;
    }
    front
    {
        type            empty;
    }
    back
    {
        type            empty;
    }
    frontAndBack
    {
        type            empty;
    }
}


// ************************************************************************* //
