/*--------------------------------*- C++ -*----------------------------------*\
  =========                 |
  \\      /  F ield         | OpenFOAM: The Open Source CFD Toolbox
   \\    /   O peration     | Website:  https://openfoam.org
    \\  /    A nd           | Version:  10
     \\/     M anipulation  |
\*---------------------------------------------------------------------------*/
FoamFile
{
    format      ascii;
    class       volScalarField;
    location    "0.06";
    object      p;
}
// * * * * * * * * * * * * * * * * * * * * * * * * * * * * * * * * * * * * * //

dimensions      [1 -1 -2 0 0 0 0];

internalField   nonuniform List<scalar> 
800
(
14.1989
14.199
14.1991
14.1971
14.1931
14.1883
14.1837
14.1789
14.175
14.1728
14.1724
14.1735
14.1759
14.1792
14.184
14.1883
14.1905
14.1924
14.1902
14.1923
13.7059
13.707
13.7074
13.7057
13.7026
13.6982
13.6947
13.6899
13.6875
13.6854
13.6852
13.6853
13.6877
13.6911
13.6933
13.6976
13.6984
13.6998
13.6985
13.7003
13.2153
13.2177
13.2176
13.216
13.2132
13.2096
13.2065
13.2024
13.1995
13.1974
13.1967
13.1974
13.1991
13.2011
13.2042
13.2062
13.2083
13.2091
13.2082
13.2095
12.7277
12.7298
12.7295
12.7281
12.725
12.7213
12.718
12.7141
12.7116
12.7099
12.7091
12.7095
12.7106
12.713
12.7155
12.7178
12.7196
12.7203
12.7192
12.7203
12.2409
12.2431
12.2429
12.2416
12.2386
12.2345
12.2333
12.2278
12.2247
12.223
12.2222
12.2224
12.2234
12.2295
12.2282
12.2308
12.2328
12.2334
12.2326
12.2332
11.7586
11.7617
11.7627
11.7581
11.7548
11.7498
11.7476
11.744
11.7395
11.7378
11.7369
11.7368
11.7377
11.7441
11.7426
11.7457
11.7481
11.7491
11.7478
11.7483
11.2783
11.2799
11.2796
11.2773
11.2734
11.2679
11.2646
11.2606
11.257
11.2549
11.2539
11.2536
11.2564
11.2592
11.26
11.2633
11.2661
11.2673
11.2658
11.2659
10.8012
10.8025
10.8024
10.7995
10.795
10.7888
10.7846
10.7801
10.7774
10.7741
10.7737
10.7738
10.7756
10.7784
10.7793
10.7839
10.7868
10.7883
10.7863
10.7862
10.3272
10.329
10.3282
10.3245
10.3189
10.3159
10.3082
10.3049
10.2998
10.2979
10.2958
10.2974
10.2966
10.2997
10.3016
10.3074
10.3105
10.3111
10.3098
10.3093
9.85564
9.85822
9.85675
9.85545
9.85134
9.84285
9.83726
9.83266
9.82721
9.82461
9.82284
9.82254
9.82417
9.82436
9.83031
9.83261
9.83409
9.83499
9.83637
9.83442
9.38674
9.38714
9.38655
9.38582
9.38172
9.37285
9.36866
9.36348
9.35805
9.35527
9.35327
9.35218
9.35368
9.35498
9.35617
9.36266
9.36456
9.36316
9.36549
9.36181
8.92046
8.92065
8.91894
8.91674
8.91183
8.90614
8.90276
8.89697
8.89167
8.88954
8.88702
8.88519
8.88542
8.88596
8.88729
8.88862
8.89367
8.89448
8.89282
8.89296
8.45635
8.45602
8.45339
8.45162
8.44744
8.44194
8.43891
8.43255
8.42903
8.42538
8.42216
8.42074
8.41915
8.41943
8.42051
8.41989
8.42433
8.42418
8.42161
8.4225
7.99304
7.99186
7.98918
7.98497
7.98406
7.97929
7.97872
7.97001
7.9674
7.96384
7.96072
7.95776
7.95557
7.95587
7.95381
7.9503
7.95314
7.95096
7.95101
7.95039
7.529
7.52663
7.52463
7.52137
7.51856
7.51621
7.51459
7.50933
7.50614
7.50272
7.49909
7.49481
7.49213
7.48818
7.48704
7.47978
7.47857
7.47639
7.47572
7.47729
7.06513
7.06164
7.05833
7.05501
7.0523
7.05247
7.04903
7.04423
7.04216
7.04
7.03447
7.02757
7.02427
7.01843
7.01601
7.00757
7.00373
7.00146
7.0012
7.003
6.60078
6.59621
6.59241
6.58793
6.5845
6.58273
6.58065
6.57654
6.57391
6.56862
6.56356
6.55854
6.55203
6.5462
6.53782
6.53111
6.52651
6.5241
6.52418
6.52602
6.13542
6.13003
6.12475
6.11936
6.11454
6.11126
6.11001
6.10344
6.10012
6.09469
6.08889
6.08245
6.07472
6.06664
6.05839
6.05137
6.04664
6.04382
6.04366
6.04568
5.66942
5.66321
5.65631
5.64896
5.64181
5.63561
5.6296
5.62447
5.61941
5.61355
5.6069
5.59943
5.591
5.58264
5.57473
5.56803
5.56335
5.56062
5.56038
5.56231
5.20389
5.19674
5.18769
5.17736
5.1667
5.15673
5.14759
5.13949
5.13216
5.12501
5.11765
5.10998
5.10211
5.09448
5.08741
5.08156
5.07731
5.07475
5.07443
5.07611
4.74012
4.73178
4.71988
4.70553
4.6901
4.67524
4.66176
4.64977
4.63927
4.63022
4.62241
4.61538
4.6089
4.60292
4.59751
4.59282
4.58904
4.58658
4.58613
4.58743
4.27993
4.26996
4.2542
4.2344
4.21241
4.19148
4.17261
4.15576
4.14138
4.13022
4.12242
4.11693
4.11273
4.10925
4.10607
4.10264
4.09913
4.09648
4.09587
4.09679
3.82546
3.8135
3.7924
3.76374
3.73328
3.70506
3.68036
3.65773
3.63828
3.6247
3.61801
3.61546
3.61451
3.61445
3.61428
3.61227
3.60842
3.60489
3.60391
3.60472
3.3794
3.36618
3.33823
3.29629
3.25171
3.21501
3.1856
3.15598
3.12846
3.11146
3.10852
3.11158
3.11453
3.11913
3.12375
3.12328
3.11713
3.11069
3.10974
3.11189
2.94329
2.93291
2.89782
2.83112
2.76189
2.71759
2.69041
2.65153
2.60735
2.58356
2.5912
2.605
2.61015
2.62338
2.6382
2.64001
2.62666
2.61263
2.61311
2.62053
2.51417
2.52533
2.48912
2.368
2.24674
2.20473
2.20861
2.15403
2.0689
2.03477
2.07667
2.11506
2.09888
2.1301
2.16738
2.17138
2.13547
2.10474
2.11387
2.16116
2.05435
2.16296
2.15483
1.8833
1.61291
1.63256
1.76968
1.65123
1.41106
1.404
1.57546
1.58966
1.49775
1.61439
1.71285
1.67892
1.56197
1.53271
1.55175
1.60379
1.48578
2.00592
2.18148
1.44021
0.760738
1.17805
1.67472
1.29681
0.514079
0.93545
1.60843
1.24935
0.718341
1.35669
1.84665
1.33495
0.928235
1.45848
1.52547
1.08189
-0.255602
2.29024
3.13987
0.417793
-1.62205
0.623471
2.61164
0.583302
-2.09852
0.00604375
2.38614
0.347777
-2.03139
0.9462
2.88861
-0.103494
-1.8208
1.63712
2.24395
-1.38321
-3.53722
4.08004
7.06229
-0.71995
-6.92504
0.51773
7.37933
0.433132
-7.77043
-0.584296
7.61683
-0.00537219
-7.90222
1.83262
9.05838
-1.99267
-7.25014
4.8091
7.10726
-5.48666
-0.46519
0.523573
0.980784
-0.141519
-0.902682
0.110533
1.06574
-0.0196455
-0.950629
0.124638
1.09016
-0.0719228
-1.0031
0.376312
1.35019
-0.312454
-1.02725
0.753863
1.04466
-0.729351
0.0309595
0.00106413
-0.0173166
0.00868674
0.0415194
0.0100435
-0.0255414
0.000611746
0.0363777
0.000328256
-0.0306912
0.000853697
0.0382108
4.21765e-05
-0.0346065
0.025151
0.0517074
-0.0133629
-0.0264935
0.0320282
0.0156297
0.00231772
-0.00251403
0.00155294
0.0209527
0.00554686
0.000272427
0.0300436
0.0115854
-0.00808948
0.0154665
0.00416143
0.000548595
0.00413223
0.006539
0.0260347
0.0132681
-0.00377111
0.00126839
0.00465972
0.00722367
0.00324812
0.00159264
0.00631192
0.00931589
0.00370105
0.00131126
0.00180044
0.00688686
0.0052897
0.00581723
0.000324434
-0.00188018
0.00138694
0.00331638
0.00237179
0.00270895
0.00301244
0.00249147
0.0013195
0.00492336
0.00323338
0.00261153
0.00484991
0.005788
0.00327192
0.00163176
0.00271733
0.004706
0.00355472
0.00228006
0.00151282
0.00152289
0.000983129
0.00114241
0.00262196
0.00334942
0.00170749
0.00100351
0.00136436
0.00330072
0.00287873
0.0027145
0.00333592
0.00356146
0.00267479
0.00201332
0.00218461
0.00275228
0.00255491
0.00210673
0.00138849
0.00108125
0.00116652
0.00150721
0.00171749
0.00184846
0.00149765
0.00110645
0.000634152
0.00231176
0.00209273
0.00205981
0.0023539
0.00239747
0.0019406
0.00165606
0.00172891
0.00189751
0.00176282
0.00155265
0.00119888
0.000979909
0.000977129
0.00115528
0.00127689
0.00126152
0.00100227
0.000772903
0.000527727
0.00149955
0.00140035
0.00140299
0.00153239
0.00153763
0.00133389
0.00120414
0.00123156
0.00127203
0.00118285
0.00106156
0.000902973
0.000784715
0.000737142
0.000803192
0.000870815
0.000843053
0.000674728
0.000521396
0.000399746
0.000812582
0.00078121
0.000794028
0.000848958
0.000854953
0.00078387
0.000735362
0.000740277
0.00074326
0.000695224
0.000639133
0.000580029
0.000511938
0.000462932
0.000476714
0.000499902
0.000479389
0.000398713
0.000312392
0.000251818
0.000235254
0.000230324
0.000236874
0.000254422
0.000262974
0.000256189
0.00025349
0.000256861
0.000250121
0.000229433
0.000220313
0.000230347
0.000211312
0.000167609
0.000159242
0.000161723
0.000153435
0.000129187
0.000102496
8.56519e-05
)
;

boundaryField
{
    top
    {
        type            calculated;
        value           nonuniform List<scalar> 
20
(
0
0
0
0
0
0
0
0
0
0
0
0
-1.01507e-07
-5.49919e-07
-1.36084e-06
-2.46881e-06
-3.06035e-06
-2.45029e-06
-1.18223e-06
-2.43036e-07
)
;
    }
    left
    {
        type            calculated;
        value           nonuniform List<scalar> 
40
(
14.1989
13.7059
13.2153
12.7277
12.2409
11.7586
11.2783
10.8012
10.3272
9.85564
9.38674
8.92046
8.45635
7.99304
7.529
7.06513
6.60078
6.13542
5.66942
5.20389
4.74012
4.27993
3.82546
3.3794
2.94329
2.51417
2.05435
1.48578
-0.255602
-3.53722
-0.46519
0.0309595
0.0156297
0.00722367
0.00492336
0.00330072
0.00231176
0.00149955
0.000812582
0.000235254
)
;
    }
    right
    {
        type            calculated;
        value           nonuniform List<scalar> 
40
(
14.1923
13.7003
13.2095
12.7203
12.2332
11.7483
11.2659
10.7862
10.3093
9.83442
9.36181
8.89296
8.4225
7.95039
7.47729
7.003
6.52602
6.04568
5.56231
5.07611
4.58743
4.09679
3.60472
3.11189
2.62053
2.16116
1.60379
1.08189
-1.38321
-5.48666
-0.729351
0.0320282
0.00465972
0.0013195
0.00136436
0.000634152
0.000527727
0.000399746
0.000251818
8.56519e-05
)
;
    }
    bottom
    {
        type            calculated;
        value           nonuniform List<scalar> 
20
(
14.4441
14.4443
14.4443
14.4423
14.4382
14.4333
14.4287
14.4238
14.4199
14.4176
14.4172
14.4184
14.4208
14.4241
14.429
14.4334
14.4357
14.4376
14.4354
14.4376
)
;
    }
    front
    {
        type            empty;
    }
    back
    {
        type            empty;
    }
    frontAndBack
    {
        type            empty;
    }
}


// ************************************************************************* //
