/*--------------------------------*- C++ -*----------------------------------*\
  =========                 |
  \\      /  F ield         | OpenFOAM: The Open Source CFD Toolbox
   \\    /   O peration     | Website:  https://openfoam.org
    \\  /    A nd           | Version:  10
     \\/     M anipulation  |
\*---------------------------------------------------------------------------*/
FoamFile
{
    format      ascii;
    class       volScalarField;
    location    "0.06";
    object      p_rgh;
}
// * * * * * * * * * * * * * * * * * * * * * * * * * * * * * * * * * * * * * //

dimensions      [1 -1 -2 0 0 0 0];

internalField   nonuniform List<scalar> 
800
(
14.4441
14.4443
14.4444
14.4424
14.4383
14.4335
14.4289
14.4242
14.4203
14.4181
14.4176
14.4188
14.4211
14.4244
14.4292
14.4335
14.4357
14.4376
14.4355
14.4376
14.4417
14.4427
14.4431
14.4415
14.4384
14.434
14.4304
14.4257
14.4232
14.4211
14.421
14.421
14.4235
14.4268
14.4291
14.4333
14.4341
14.4355
14.4343
14.4361
14.4416
14.4439
14.4439
14.4423
14.4394
14.4358
14.4327
14.4286
14.4257
14.4236
14.4229
14.4236
14.4254
14.4273
14.4305
14.4324
14.4345
14.4354
14.4344
14.4358
14.4444
14.4465
14.4462
14.4449
14.4417
14.438
14.4348
14.4309
14.4283
14.4266
14.4259
14.4262
14.4274
14.4297
14.4323
14.4345
14.4363
14.437
14.4359
14.4371
14.4481
14.4504
14.4502
14.4488
14.4458
14.4418
14.4405
14.435
14.4319
14.4303
14.4295
14.4296
14.4307
14.4367
14.4354
14.438
14.44
14.4407
14.4398
14.4404
14.4563
14.4594
14.4604
14.4559
14.4525
14.4475
14.4454
14.4417
14.4373
14.4356
14.4346
14.4345
14.4354
14.4418
14.4403
14.4434
14.4458
14.4468
14.4456
14.4461
14.4666
14.4682
14.4678
14.4655
14.4616
14.4561
14.4528
14.4489
14.4452
14.4431
14.4421
14.4418
14.4446
14.4474
14.4482
14.4515
14.4543
14.4556
14.454
14.4541
14.4799
14.4812
14.4811
14.4782
14.4737
14.4676
14.4633
14.4588
14.4561
14.4528
14.4524
14.4525
14.4543
14.4572
14.458
14.4626
14.4656
14.467
14.4651
14.4649
14.4964
14.4982
14.4974
14.4937
14.4881
14.4851
14.4774
14.4741
14.469
14.4671
14.465
14.4666
14.4658
14.4689
14.4708
14.4766
14.4797
14.4803
14.479
14.4785
14.5153
14.5179
14.5165
14.5152
14.5111
14.5026
14.497
14.4924
14.4869
14.4843
14.4825
14.4822
14.4839
14.4841
14.49
14.4923
14.4938
14.4947
14.4961
14.4942
14.537
14.5374
14.5368
14.536
14.5319
14.5231
14.5189
14.5137
14.5083
14.5055
14.5035
14.5024
14.5039
14.5052
14.5064
14.5129
14.5148
14.5134
14.5157
14.512
14.5612
14.5614
14.5597
14.5574
14.5525
14.5468
14.5434
14.5377
14.5324
14.5302
14.5277
14.5259
14.5261
14.5266
14.528
14.5293
14.5344
14.5352
14.5335
14.5337
14.5876
14.5872
14.5846
14.5828
14.5786
14.5731
14.5701
14.5637
14.5602
14.5566
14.5533
14.5519
14.5503
14.5506
14.5517
14.5511
14.5556
14.5554
14.5528
14.5537
14.6148
14.6136
14.6109
14.6067
14.6058
14.601
14.6004
14.5917
14.5891
14.5855
14.5824
14.5794
14.5773
14.5776
14.5755
14.572
14.5749
14.5727
14.5727
14.5721
14.6412
14.6388
14.6369
14.6336
14.6308
14.6284
14.6268
14.6215
14.6183
14.6149
14.6113
14.607
14.6044
14.6004
14.5992
14.592
14.5908
14.5886
14.5879
14.5895
14.6679
14.6644
14.6611
14.6577
14.655
14.6552
14.6517
14.647
14.6448
14.6427
14.6371
14.6303
14.627
14.6211
14.6187
14.6103
14.6064
14.6042
14.6039
14.6057
14.694
14.6894
14.6856
14.6812
14.6777
14.6759
14.6738
14.6698
14.6671
14.6618
14.6568
14.6518
14.6452
14.6394
14.631
14.6243
14.6197
14.6173
14.6174
14.6193
14.7192
14.7138
14.7085
14.7031
14.6983
14.695
14.6937
14.6872
14.6838
14.6784
14.6726
14.6662
14.6584
14.6504
14.6421
14.6351
14.6304
14.6276
14.6274
14.6294
14.7437
14.7374
14.7305
14.7232
14.716
14.7098
14.7038
14.6987
14.6936
14.6878
14.6811
14.6737
14.6652
14.6569
14.649
14.6423
14.6376
14.6349
14.6346
14.6366
14.7686
14.7615
14.7524
14.7421
14.7314
14.7215
14.7123
14.7042
14.6969
14.6897
14.6824
14.6747
14.6668
14.6592
14.6522
14.6463
14.6421
14.6395
14.6392
14.6409
14.7954
14.787
14.7751
14.7608
14.7453
14.7305
14.717
14.705
14.6945
14.6855
14.6777
14.6706
14.6641
14.6582
14.6528
14.6481
14.6443
14.6418
14.6414
14.6427
14.8257
14.8157
14.7999
14.7802
14.7582
14.7372
14.7184
14.7015
14.6871
14.676
14.6682
14.6627
14.6585
14.655
14.6518
14.6484
14.6449
14.6422
14.6416
14.6425
14.8617
14.8498
14.8287
14.8
14.7695
14.7413
14.7166
14.694
14.6745
14.661
14.6543
14.6517
14.6508
14.6507
14.6505
14.6485
14.6447
14.6411
14.6402
14.641
14.9062
14.8929
14.865
14.823
14.7785
14.7418
14.7124
14.6827
14.6552
14.6382
14.6353
14.6383
14.6413
14.6459
14.6505
14.65
14.6439
14.6374
14.6365
14.6386
14.9606
14.9502
14.9151
14.8484
14.7791
14.7349
14.7077
14.6688
14.6246
14.6008
14.6085
14.6223
14.6274
14.6406
14.6555
14.6573
14.6439
14.6299
14.6304
14.6378
15.0219
15.0331
14.9969
14.8758
14.7545
14.7125
14.7164
14.6618
14.5767
14.5425
14.5844
14.6228
14.6066
14.6378
14.6751
14.6791
14.6432
14.6125
14.6216
14.6689
15.0526
15.1612
15.1531
14.8815
14.6112
14.6308
14.7679
14.6495
14.4093
14.4022
14.5737
14.5879
14.496
14.6126
14.7111
14.6772
14.5602
14.5309
14.55
14.602
14.9745
15.4947
15.6702
14.929
14.2495
14.6668
15.1635
14.7856
14.0028
14.4242
15.0972
14.7381
14.2071
14.8454
15.3354
14.8237
14.417
14.9472
15.0142
14.5706
13.7236
16.2695
17.1191
14.397
12.3572
14.6027
16.5909
14.5625
11.8807
13.9853
16.3654
14.327
11.9478
14.9254
16.8678
13.8757
12.1584
15.6163
16.2232
12.596
9.11126
16.8009
19.777
11.9535
5.6439
13.1668
20.0225
13.0474
4.72392
11.97
20.2215
12.5577
4.58159
14.3982
21.6924
10.5446
5.26128
17.4025
19.7194
7.00605
1.51446
2.59231
3.04388
1.87803
0.953482
2.13382
3.05384
2.00341
0.833146
2.14397
3.04116
1.94586
0.75731
2.40591
3.32283
1.64677
0.729126
2.76761
3.01375
1.12166
0.046413
0.0168459
-0.00135961
0.024457
0.0570518
0.026377
-0.00940524
0.0164576
0.0519944
0.0176747
-0.0146001
0.0174019
0.0543458
0.0179857
-0.0172407
0.0427367
0.068149
0.0043249
-0.00971537
0.0478811
0.0315718
0.0183799
0.0135451
0.0178207
0.0369751
0.0223931
0.016365
0.0474628
0.0276925
0.00928088
0.0314763
0.0219605
0.017175
0.0221549
0.0227544
0.0441418
0.0301187
0.0133935
0.01738
0.020989
0.0236555
0.0196813
0.0180252
0.0227606
0.0257482
0.0201416
0.0177446
0.0182327
0.0233198
0.0217542
0.0222492
0.016788
0.0145516
0.0178655
0.0197507
0.0188344
0.0191407
0.019455
0.0189247
0.0178018
0.0218456
0.0201558
0.0195338
0.0217722
0.0227103
0.0201942
0.018554
0.0196401
0.0216283
0.0204775
0.0192023
0.0184356
0.0184451
0.0179065
0.0180647
0.0195442
0.0202717
0.0186314
0.0179258
0.0182876
0.0207135
0.0202915
0.0201272
0.0207487
0.0209742
0.0200875
0.0194261
0.0195974
0.020165
0.0199677
0.0195195
0.0188012
0.018494
0.0185793
0.01892
0.0191302
0.0192612
0.0189104
0.0185192
0.0180469
0.020215
0.019996
0.0199631
0.0202572
0.0203007
0.0198438
0.0195593
0.0196322
0.0198008
0.0196661
0.0194559
0.0191021
0.0188832
0.0188804
0.0190585
0.0191801
0.0191648
0.0189055
0.0186762
0.018431
0.0198933
0.0197941
0.0197967
0.0199261
0.0199314
0.0197276
0.0195979
0.0196253
0.0196658
0.0195766
0.0194553
0.0192967
0.0191785
0.0191309
0.0191969
0.0192646
0.0192368
0.0190685
0.0189151
0.0187935
0.0196968
0.0196655
0.0196783
0.0197332
0.0197392
0.0196681
0.0196196
0.0196245
0.0196275
0.0195795
0.0195234
0.0194643
0.0193962
0.0193472
0.019361
0.0193842
0.0193636
0.019283
0.0191966
0.0191361
0.01961
0.0196051
0.0196116
0.0196292
0.0196377
0.0196309
0.0196282
0.0196316
0.0196249
0.0196042
0.0195951
0.0196051
0.0195861
0.0195424
0.019534
0.0195365
0.0195282
0.0195039
0.0194772
0.0194604
)
;

boundaryField
{
    top
    {
        type            prghTotalPressure;
        rho             rho;
        psi             none;
        gamma           1;
        p0              uniform 0;
        value           nonuniform List<scalar> 
20
(
0.01962
0.01962
0.01962
0.01962
0.01962
0.01962
0.01962
0.01962
0.01962
0.01962
0.01962
0.01962
0.0196199
0.0196195
0.0196186
0.0196175
0.0196169
0.0196175
0.0196188
0.0196198
)
;
        rho             rho;
    }
    left
    {
        type            fixedFluxPressure;
        gradient        uniform 0;
        value           nonuniform List<scalar> 
40
(
14.4441
14.4417
14.4416
14.4444
14.4481
14.4563
14.4666
14.4799
14.4964
14.5153
14.537
14.5612
14.5876
14.6148
14.6412
14.6679
14.694
14.7192
14.7437
14.7686
14.7954
14.8257
14.8617
14.9062
14.9606
15.0219
15.0526
14.9745
13.7236
9.11126
1.51446
0.046413
0.0315718
0.0236555
0.0218456
0.0207135
0.020215
0.0198933
0.0196968
0.01961
)
;
    }
    right
    {
        type            fixedFluxPressure;
        gradient        uniform 0;
        value           nonuniform List<scalar> 
40
(
14.4376
14.4361
14.4358
14.4371
14.4404
14.4461
14.4541
14.4649
14.4785
14.4942
14.512
14.5337
14.5537
14.5721
14.5895
14.6057
14.6193
14.6294
14.6366
14.6409
14.6427
14.6425
14.641
14.6386
14.6378
14.6689
14.602
14.5706
12.596
7.00605
1.12166
0.0478811
0.020989
0.0178018
0.0182876
0.0180469
0.018431
0.0187935
0.0191361
0.0194604
)
;
    }
    bottom
    {
        type            fixedFluxPressure;
        gradient        nonuniform List<scalar> 
20
(
-0.619679
-0.993286
-1.79052
-3.09012
-4.95402
-7.37122
-10.1958
-13.1064
-15.584
-17.0305
-17.0158
-15.5448
-13.055
-10.1473
-7.33523
-4.93403
-3.08249
-1.78872
-0.993755
-0.620325
)
;
        value           nonuniform List<scalar> 
20
(
14.4441
14.4443
14.4443
14.4423
14.4382
14.4333
14.4287
14.4238
14.4199
14.4176
14.4172
14.4184
14.4208
14.4241
14.429
14.4334
14.4357
14.4376
14.4354
14.4376
)
;
    }
    front
    {
        type            empty;
    }
    back
    {
        type            empty;
    }
    frontAndBack
    {
        type            empty;
    }
}


// ************************************************************************* //
