/*--------------------------------*- C++ -*----------------------------------*\
  =========                 |
  \\      /  F ield         | OpenFOAM: The Open Source CFD Toolbox
   \\    /   O peration     | Website:  https://openfoam.org
    \\  /    A nd           | Version:  10
     \\/     M anipulation  |
\*---------------------------------------------------------------------------*/
FoamFile
{
    format      ascii;
    class       surfaceScalarField;
    location    "0.06";
    object      phi;
}
// * * * * * * * * * * * * * * * * * * * * * * * * * * * * * * * * * * * * * //

dimensions      [0 3 -1 0 0 0 0];

internalField   nonuniform List<scalar> 
1540
(
7.65649e-14
-7.67697e-14
3.27158e-13
-2.50827e-13
6.9879e-13
-3.71876e-13
1.05957e-12
-3.61023e-13
1.29551e-12
-2.36183e-13
1.35302e-12
-5.77511e-14
1.19777e-12
1.55e-13
8.78907e-13
3.18624e-13
4.25021e-13
4.53643e-13
-8.42768e-14
5.09055e-13
-5.78376e-13
4.93856e-13
-1.00819e-12
4.29569e-13
-1.30032e-12
2.91897e-13
-1.43752e-12
1.36952e-13
-1.3502e-12
-8.75501e-14
-1.07071e-12
-2.79729e-13
-6.72949e-13
-3.98001e-13
-3.28096e-13
-3.45107e-13
-5.94378e-14
-2.68922e-13
-5.95705e-14
2.80768e-13
-3.57774e-13
9.34176e-13
-9.04497e-13
1.74915e-12
-1.18711e-12
2.49155e-12
-1.1037e-12
2.976e-12
-7.20908e-13
3.08169e-12
-1.63707e-13
2.69296e-12
5.43462e-13
1.9395e-12
1.07181e-12
8.96791e-13
1.49609e-12
-2.53824e-13
1.6594e-12
-1.38914e-12
1.62891e-12
-2.38077e-12
1.42093e-12
-3.08465e-12
9.95514e-13
-3.35304e-12
4.0508e-13
-3.1798e-12
-2.61059e-13
-2.63808e-12
-8.21713e-13
-1.83906e-12
-1.19728e-12
-9.51837e-13
-1.2326e-12
-2.69739e-13
-9.51292e-13
-3.29445e-13
4.34273e-13
-7.92292e-13
1.40695e-12
-1.87744e-12
2.50614e-12
-2.28658e-12
3.4828e-12
-2.08064e-12
4.0815e-12
-1.31989e-12
4.12539e-12
-2.07876e-13
3.69457e-12
9.74006e-13
2.65537e-12
2.11074e-12
1.26572e-12
2.88546e-12
-3.355e-13
3.26034e-12
-1.92367e-12
3.2168e-12
-3.2704e-12
2.76738e-12
-4.21399e-12
1.93882e-12
-4.59057e-12
7.81397e-13
-4.41993e-12
-4.3197e-13
-3.6942e-12
-1.54772e-12
-2.61586e-12
-2.2759e-12
-1.42218e-12
-2.42655e-12
-4.36645e-13
-1.9371e-12
-7.66227e-13
5.79655e-13
-1.3722e-12
1.74234e-12
-3.0404e-12
3.04432e-12
-3.58885e-12
4.19325e-12
-3.22984e-12
4.88667e-12
-2.01359e-12
4.95053e-12
-2.7201e-13
4.29623e-12
1.62803e-12
3.10378e-12
3.3029e-12
1.46531e-12
4.52365e-12
-4.01541e-13
5.12692e-12
-2.2517e-12
5.06669e-12
-3.83214e-12
4.34754e-12
-4.9251e-12
3.03151e-12
-5.45213e-12
1.30815e-12
-5.25656e-12
-6.27816e-13
-4.43724e-12
-2.36731e-12
-3.1628e-12
-3.55061e-12
-1.72987e-12
-3.85976e-12
-5.43415e-13
-3.12383e-12
-1.30978e-12
6.12518e-13
-1.98496e-12
1.85744e-12
-4.2856e-12
3.36604e-12
-5.09772e-12
4.66605e-12
-4.53013e-12
5.44289e-12
-2.79071e-12
5.49154e-12
-3.20937e-13
4.76047e-12
2.35882e-12
3.40139e-12
4.6617e-12
1.5948e-12
6.32995e-12
-4.4746e-13
7.1689e-12
-2.47339e-12
7.09234e-12
-4.21883e-12
6.0927e-12
-5.47285e-12
4.28525e-12
-6.03654e-12
1.87157e-12
-5.86939e-12
-7.95232e-13
-4.9793e-12
-3.25768e-12
-3.5629e-12
-4.96729e-12
-1.95102e-12
-5.47191e-12
-6.07944e-13
-4.46718e-12
-1.91786e-12
6.2243e-13
-2.60764e-12
1.99966e-12
-5.66311e-12
3.64254e-12
-6.74088e-12
4.98745e-12
-5.87532e-12
5.75358e-12
-3.55712e-12
5.7934e-12
-3.61039e-13
5.04606e-12
3.10588e-12
3.59125e-12
6.11624e-12
1.69166e-12
8.22926e-12
-4.70769e-13
9.33105e-12
-2.60538e-12
9.22668e-12
-4.45913e-12
7.94618e-12
-5.75706e-12
5.5829e-12
-6.49394e-12
2.60817e-12
-6.30753e-12
-9.81919e-13
-5.35587e-12
-4.20961e-12
-3.84842e-12
-6.475e-12
-2.13165e-12
-7.18896e-12
-6.75491e-13
-5.92362e-12
-2.59349e-12
6.81678e-13
-3.28957e-12
2.12534e-12
-7.10705e-12
3.75784e-12
-8.37366e-12
5.13762e-12
-7.25538e-12
5.91873e-12
-4.3385e-12
5.92565e-12
-3.68245e-13
5.15617e-12
3.87508e-12
3.69345e-12
7.57868e-12
1.72985e-12
1.01926e-11
-4.89365e-13
1.155e-11
-2.67799e-12
1.1415e-11
-4.56162e-12
9.82954e-12
-6.01471e-12
7.03571e-12
-6.6069e-12
3.20009e-12
-6.47152e-12
-1.11756e-12
-5.49963e-12
-5.18178e-12
-3.96765e-12
-8.00725e-12
-2.21808e-12
-8.9388e-12
-7.04722e-13
-7.43725e-12
-3.29835e-12
6.42697e-13
-3.93251e-12
2.1084e-12
-8.57302e-12
3.71178e-12
-9.97731e-12
5.04982e-12
-8.59371e-12
5.80155e-12
-5.09051e-12
5.79392e-12
-3.60892e-13
5.05272e-12
4.61601e-12
3.66653e-12
8.96458e-12
1.70432e-12
1.21545e-11
-5.05445e-13
1.37595e-11
-2.6681e-12
1.35774e-11
-4.53312e-12
1.16943e-11
-5.91522e-12
8.41754e-12
-6.5888e-12
3.8734e-12
-6.2927e-12
-1.41393e-12
-5.3593e-12
-6.11544e-12
-3.87522e-12
-9.49161e-12
-2.16354e-12
-1.06508e-11
-6.92404e-13
-8.90866e-12
-3.99088e-12
6.78718e-13
-4.61148e-12
1.95332e-12
-9.8479e-12
3.42964e-12
-1.14539e-11
4.67449e-12
-9.83883e-12
5.36732e-12
-5.78362e-12
5.37273e-12
-3.66581e-13
4.7403e-12
5.24816e-12
3.412e-12
1.02926e-11
1.57525e-12
1.3991e-11
-4.53574e-13
1.5788e-11
-2.45753e-12
1.55811e-11
-4.25292e-12
1.34894e-11
-5.44807e-12
9.61242e-12
-5.90511e-12
4.33017e-12
-5.73107e-12
-1.58824e-12
-4.89292e-12
-6.95386e-12
-3.55662e-12
-1.08282e-11
-1.99024e-12
-1.22174e-11
-6.17473e-13
-1.02817e-11
-4.60849e-12
5.01873e-13
-5.1136e-12
1.54738e-12
-1.08937e-11
2.78315e-12
-1.26899e-11
3.84045e-12
-1.08964e-11
4.53269e-12
-6.47613e-12
4.61133e-12
-4.45498e-13
4.00342e-12
5.85579e-12
2.79564e-12
1.15001e-11
1.24124e-12
1.55451e-11
-5.23919e-13
1.75529e-11
-2.28557e-12
1.73425e-11
-3.75818e-12
1.49617e-11
-4.7384e-12
1.05924e-11
-5.07014e-12
4.66163e-12
-4.8456e-12
-1.81303e-12
-4.03637e-12
-7.76335e-12
-2.957e-12
-1.19078e-11
-1.67282e-12
-1.35019e-11
-5.10593e-13
-1.14442e-11
-5.11921e-12
3.80715e-13
-5.49456e-12
1.07524e-12
-1.15885e-11
1.91226e-12
-1.35272e-11
2.83448e-12
-1.18189e-11
3.46771e-12
-7.10962e-12
3.57257e-12
-5.50634e-13
3.09274e-12
6.33535e-12
2.10722e-12
1.24854e-11
8.30302e-13
1.68218e-11
-5.81881e-13
1.89648e-11
-1.9633e-12
1.87236e-11
-3.07949e-12
1.60777e-11
-3.84702e-12
1.13596e-11
-4.09999e-12
4.91434e-12
-3.72931e-12
-2.18398e-12
-3.02054e-12
-8.47237e-12
-2.09717e-12
-1.28314e-11
-1.15271e-12
-1.44466e-11
-4.70638e-13
-1.21265e-11
-5.58998e-12
2.53542e-13
-5.74834e-12
6.74884e-13
-1.20101e-11
1.22478e-12
-1.40774e-11
1.72061e-12
-1.2315e-11
2.10393e-12
-7.49321e-12
2.22395e-12
-6.70918e-13
1.91919e-12
6.63984e-12
1.24406e-12
1.31602e-11
3.48208e-13
1.77174e-11
-6.35673e-13
1.99484e-11
-1.56948e-12
1.96571e-11
-2.3173e-12
1.68252e-11
-2.71595e-12
1.1758e-11
-2.67714e-12
4.87528e-12
-2.30965e-12
-2.55172e-12
-1.72627e-12
-9.056e-12
-1.08181e-12
-1.34762e-11
-5.10912e-13
-1.50177e-11
-8.67826e-14
-1.25509e-11
-5.67689e-12
6.92806e-14
-5.81786e-12
9.93421e-14
-1.20404e-11
1.93397e-13
-1.41717e-11
2.70013e-13
-1.23919e-11
4.11579e-13
-7.63504e-12
4.86684e-13
-7.46285e-13
3.30291e-13
6.79597e-12
4.85422e-14
1.34417e-11
-3.31184e-13
1.80968e-11
-7.27427e-13
2.03444e-11
-1.07213e-12
2.00016e-11
-1.26467e-12
1.70175e-11
-1.22818e-12
1.17213e-11
-9.86843e-13
4.6337e-12
-6.43168e-13
-2.89565e-12
-2.99536e-13
-9.39988e-12
-6.05779e-14
-1.37154e-11
-1.21001e-14
-1.50665e-11
3.81617e-14
-1.26014e-11
-5.63885e-12
-1.59631e-13
-5.65846e-12
-4.86998e-13
-1.17133e-11
-9.93889e-13
-1.36651e-11
-1.34412e-12
-1.20419e-11
-1.51031e-12
-7.4691e-12
-1.46413e-12
-7.9273e-13
-1.40567e-12
6.73726e-12
-1.22724e-12
1.3263e-11
-1.04895e-12
1.79183e-11
-8.4711e-13
2.01423e-11
-5.65755e-13
1.972e-11
-1.96881e-13
1.66484e-11
2.38254e-13
1.12859e-11
5.86083e-13
4.28562e-12
9.65746e-13
-3.27555e-12
1.0704e-12
-9.50478e-12
7.9521e-13
-1.34404e-11
4.77127e-13
-1.47486e-11
1.75411e-13
-1.23e-11
-5.46356e-12
-3.65988e-13
-5.2927e-12
-1.12688e-12
-1.09526e-11
-2.10865e-12
-1.26836e-11
-2.94227e-12
-1.12085e-11
-3.3879e-12
-7.02372e-12
-3.36958e-12
-8.11305e-13
-3.02658e-12
6.39401e-12
-2.53013e-12
1.27663e-11
-1.80346e-12
1.71914e-11
-9.80437e-13
1.93191e-11
-1.06299e-13
1.88456e-11
7.58682e-13
1.57832e-11
1.55866e-12
1.04857e-11
2.21513e-12
3.62892e-12
2.42466e-12
-3.48532e-12
2.30622e-12
-9.38658e-12
1.8914e-12
-1.30258e-11
1.11952e-12
-1.3977e-11
3.42463e-13
-1.15231e-11
-5.12122e-12
-5.42098e-13
-4.75083e-12
-1.72314e-12
-9.77184e-12
-3.09116e-12
-1.13158e-11
-4.24974e-12
-1.00502e-11
-4.98036e-12
-6.29335e-12
-5.09099e-12
-7.00918e-13
-4.54544e-12
5.84821e-12
-3.59091e-12
1.18116e-11
-2.46126e-12
1.60615e-11
-1.10686e-12
1.79644e-11
3.19846e-13
1.74187e-11
1.69087e-12
1.44119e-11
2.88066e-12
9.29565e-12
3.72122e-12
2.78813e-12
3.88237e-12
-3.6467e-12
3.46428e-12
-8.96872e-12
2.6524e-12
-1.22142e-11
1.55857e-12
-1.28834e-11
5.3579e-13
-1.05006e-11
-4.58555e-12
-6.65291e-13
-4.08576e-12
-2.11727e-12
-8.3201e-12
-3.799e-12
-9.63434e-12
-5.30606e-12
-8.5434e-12
-6.32834e-12
-5.27131e-12
-6.59554e-12
-4.33964e-13
-5.94738e-12
5.19981e-12
-4.72575e-12
1.05897e-11
-3.11369e-12
1.44492e-11
-1.29727e-12
1.61478e-11
6.13481e-13
1.55077e-11
2.40415e-12
1.2621e-11
3.91853e-12
7.78104e-12
4.78911e-12
1.91732e-12
4.8931e-12
-3.75092e-12
4.28144e-12
-8.35728e-12
3.16662e-12
-1.10996e-11
1.83113e-12
-1.15481e-11
6.21223e-13
-9.29094e-12
-3.96444e-12
-7.36577e-13
-3.3494e-12
-2.3211e-12
-6.73582e-12
-4.20087e-12
-7.75482e-12
-5.94792e-12
-6.79659e-12
-7.13364e-12
-4.08584e-12
-7.5194e-12
-4.84516e-14
-7.0142e-12
4.69438e-12
-5.61696e-12
9.19219e-12
-3.70289e-12
1.25349e-11
-1.49602e-12
1.39406e-11
7.70137e-13
1.32413e-11
2.85886e-12
1.0532e-11
4.45447e-12
6.18519e-12
5.27722e-12
1.09434e-12
5.31021e-12
-3.78415e-12
4.59368e-12
-7.64097e-12
3.36372e-12
-9.86988e-12
1.92723e-12
-1.01119e-11
6.41656e-13
-8.00561e-12
-3.32291e-12
-7.39974e-13
-2.60965e-12
-2.3564e-12
-5.11964e-12
-4.28178e-12
-5.82969e-12
-6.07548e-12
-5.00313e-12
-7.34343e-12
-2.81813e-12
-7.85005e-12
4.57924e-13
-7.44226e-12
4.28635e-12
-6.12435e-12
7.87404e-12
-4.0917e-12
1.0502e-11
-1.7226e-12
1.15713e-11
6.96785e-13
1.08217e-11
2.8565e-12
8.37208e-12
4.41359e-12
4.62786e-12
5.19032e-12
3.17387e-13
5.1573e-12
-3.75136e-12
4.43136e-12
-6.91527e-12
3.23459e-12
-8.67335e-12
1.84844e-12
-8.72598e-12
6.1925e-13
-6.77668e-12
-2.70378e-12
-6.99213e-13
-1.91066e-12
-2.25262e-12
-3.56648e-12
-4.11365e-12
-3.96891e-12
-5.86481e-12
-3.25223e-12
-7.16576e-12
-1.51743e-12
-7.73768e-12
1.02959e-12
-7.40478e-12
3.95321e-12
-6.19782e-12
6.66684e-12
-4.2813e-12
8.58522e-12
-1.96802e-12
9.25777e-12
3.82276e-13
8.47112e-12
2.43551e-12
6.3186e-12
3.89672e-12
3.1664e-12
4.60837e-12
-3.94495e-13
4.57417e-12
-3.71741e-12
3.91856e-12
-6.2599e-12
2.85967e-12
-7.6147e-12
1.63722e-12
-7.50378e-12
5.5454e-13
-5.69425e-12
-2.14938e-12
-6.36506e-13
-1.27438e-12
-2.06949e-12
-2.13375e-12
-3.79844e-12
-2.24021e-12
-5.44747e-12
-1.60345e-12
-6.69411e-12
-2.71049e-13
-7.27552e-12
1.61075e-12
-7.03457e-12
3.712e-12
-5.98414e-12
5.61615e-12
-4.28248e-12
6.8833e-12
-2.20609e-12
7.18113e-12
-8.7389e-14
6.35217e-12
1.75153e-12
4.47942e-12
3.05742e-12
1.86026e-12
3.70284e-12
-1.04016e-12
3.71084e-12
-3.72566e-12
3.19345e-12
-5.74276e-12
2.33819e-12
-6.75969e-12
1.34652e-12
-6.51238e-12
4.66979e-13
-4.81498e-12
-1.68253e-12
-5.67847e-13
-7.06767e-13
-1.85874e-12
-8.43116e-13
-3.42142e-12
-6.77794e-13
-4.91368e-12
-1.11453e-13
-6.04877e-12
8.63782e-13
-6.60039e-12
2.16211e-12
-6.43567e-12
3.54703e-12
-5.57103e-12
4.75124e-12
-4.13823e-12
5.45024e-12
-2.38044e-12
5.42308e-12
-5.77297e-13
4.54876e-12
9.90763e-13
2.9111e-12
2.1156e-12
7.35167e-13
2.69688e-12
-1.6217e-12
2.76273e-12
-3.79177e-12
2.40094e-12
-5.38122e-12
1.76908e-12
-6.1281e-12
1.02678e-12
-5.77035e-12
3.74312e-13
-4.1628e-12
-1.30837e-12
-5.09278e-13
-1.97726e-13
-1.65996e-12
3.07304e-13
-3.03488e-12
6.96856e-13
-4.34708e-12
1.20047e-12
-5.3253e-12
1.84173e-12
-5.81641e-12
2.65294e-12
-5.6959e-12
3.42625e-12
-5.00262e-12
4.05769e-12
-3.83596e-12
4.28332e-12
-2.40947e-12
3.99631e-12
-9.35369e-13
3.07438e-12
3.56374e-13
1.61909e-12
1.29675e-12
-2.05486e-13
1.79915e-12
-2.12436e-12
1.90962e-12
-3.90252e-12
1.67803e-12
-5.14991e-12
1.24725e-12
-5.69761e-12
7.29088e-13
-5.25248e-12
2.91507e-13
-3.72552e-12
-1.01701e-12
-4.76829e-13
2.78855e-13
-1.49655e-12
1.32676e-12
-2.66407e-12
1.86409e-12
-3.7705e-12
2.30662e-12
-4.55908e-12
2.63003e-12
-4.9618e-12
3.05538e-12
-4.82888e-12
3.29305e-12
-4.2571e-12
3.48562e-12
-3.301e-12
3.32693e-12
-2.17165e-12
2.86668e-12
-9.98323e-13
1.90076e-12
5.04353e-14
5.70043e-13
8.0884e-13
-9.64178e-13
1.20508e-12
-2.52089e-12
1.32482e-12
-4.02255e-12
1.17007e-12
-4.99545e-12
8.6863e-13
-5.39646e-12
5.00307e-13
-4.88446e-12
2.41844e-13
-3.46736e-12
-7.75323e-13
-4.74017e-13
7.5262e-13
-1.37995e-12
2.23241e-12
-2.27672e-12
2.76057e-12
-3.16302e-12
3.19262e-12
-3.69078e-12
3.15749e-12
-4.00366e-12
3.36797e-12
-3.74624e-12
3.03533e-12
-3.23542e-12
2.9745e-12
-2.38393e-12
2.47514e-12
-1.49549e-12
1.97794e-12
-5.69406e-13
9.74373e-13
2.49517e-13
-2.49182e-13
8.6167e-13
-1.57663e-12
1.11626e-12
-2.77578e-12
1.20143e-12
-4.10801e-12
1.04166e-12
-4.83598e-12
7.79964e-13
-5.13508e-12
3.81734e-13
-4.48655e-12
2.19779e-13
-3.30573e-12
-5.55705e-13
-5.82706e-13
1.33507e-12
-1.34876e-12
2.99818e-12
-1.89258e-12
3.3041e-12
-2.44232e-12
3.74207e-12
-2.6313e-12
3.34617e-12
-2.94552e-12
3.68189e-12
-2.38358e-12
2.4731e-12
-1.85607e-12
2.44669e-12
-1.05584e-12
1.6746e-12
-4.30085e-13
1.35188e-12
4.34763e-13
1.0922e-13
1.39458e-12
-1.2093e-12
1.89709e-12
-2.07945e-12
1.86623e-12
-2.74523e-12
1.82465e-12
-4.06674e-12
1.53889e-12
-4.55053e-12
1.10547e-12
-4.70197e-12
3.47674e-13
-3.72907e-12
2.52435e-15
-2.9609e-12
-5.53335e-13
-9.32194e-13
2.26701e-12
-1.42152e-12
3.48724e-12
-1.19551e-12
3.07782e-12
-1.16068e-12
3.70697e-12
-1.42594e-12
3.61115e-12
-1.632e-12
3.88767e-12
-5.90173e-13
1.43098e-12
9.03901e-13
9.52336e-13
1.49073e-12
1.08748e-12
1.30427e-12
1.53806e-12
2.35847e-12
-9.45259e-13
3.35484e-12
-2.20596e-12
3.65802e-12
-2.38292e-12
3.35226e-12
-2.43975e-12
3.44085e-12
-4.15562e-12
3.01492e-12
-4.12489e-12
2.25532e-12
-3.94266e-12
7.58874e-13
-2.23292e-12
1.67875e-13
-2.3702e-12
-3.85587e-13
-2.99343e-12
5.26024e-12
-2.97564e-12
3.46924e-12
-3.98604e-13
5.00563e-13
7.31725e-13
2.57642e-12
-1.16253e-12
5.50519e-12
-8.69283e-13
3.5942e-12
2.68223e-12
-2.12075e-12
5.71843e-12
-2.08409e-12
4.06297e-12
2.74272e-12
2.57099e-12
3.02981e-12
5.05202e-12
-3.42651e-12
7.00593e-12
-4.16009e-12
5.45201e-12
-8.29225e-13
4.64525e-12
-1.63321e-12
5.84222e-12
-5.35281e-12
5.49832e-12
-3.78122e-12
2.60059e-12
-1.04517e-12
1.33845e-12
-9.71011e-13
2.08943e-12
-3.1214e-12
1.70376e-12
-7.38248e-12
1.26426e-11
-4.72789e-12
8.14528e-13
5.66607e-12
-9.8935e-12
8.30898e-12
-6.66049e-14
-2.95815e-12
1.67722e-11
-4.3186e-12
4.95454e-12
1.03708e-11
-1.68103e-11
1.81864e-11
-9.89982e-12
6.02047e-12
1.49086e-11
1.90371e-12
7.14645e-12
1.42655e-11
-1.57884e-11
1.8167e-11
-8.06173e-12
5.99574e-12
1.13419e-11
6.22968e-12
-1.86726e-12
1.8877e-11
-1.80002e-11
1.45538e-11
5.41813e-13
-9.18307e-13
1.44268e-11
3.60541e-13
-2.24997e-12
6.81566e-12
-9.57662e-12
8.5194e-12
-2.24487e-11
3.50913e-11
-1.4099e-11
-7.53526e-12
2.12289e-11
-4.52214e-11
3.22752e-11
-1.1113e-11
-1.45953e-11
6.36427e-11
-2.54244e-11
1.57836e-11
2.29934e-11
-6.52281e-11
4.62683e-11
-3.31747e-11
-3.84123e-12
6.50181e-11
-2.34963e-11
2.68015e-11
2.64515e-11
-6.57363e-11
4.17586e-11
-2.33688e-11
-1.3225e-11
6.63255e-11
-1.56099e-11
5.1761e-13
4.01166e-11
-7.37268e-11
3.13625e-11
9.29595e-12
-2.0399e-11
6.61882e-11
-2.31726e-12
-2.03317e-11
3.04473e-11
-4.23411e-11
3.89667e-11
-1.51675e-11
5.02588e-11
-1.09636e-11
-1.17392e-11
2.19754e-11
-7.81604e-11
2.8789e-11
-1.79266e-11
-2.4904e-11
1.17336e-10
-4.15587e-11
3.24384e-11
3.47518e-12
-1.10262e-10
2.43582e-11
-5.40578e-11
-2.72815e-11
1.16658e-10
-3.86817e-11
3.82017e-11
2.54423e-12
-1.06962e-10
2.14341e-11
-4.22587e-11
-3.1241e-11
1.19001e-10
-3.06689e-11
-5.44676e-14
1.80704e-11
-1.22466e-10
1.93147e-11
8.05178e-12
-3.67318e-11
1.22235e-10
-7.69617e-12
-4.93673e-11
2.96469e-11
-7.96842e-11
6.86136e-11
2.52215e-11
2.50372e-11
2.27117e-11
-9.2294e-12
-9.52863e-12
-4.59201e-11
-3.81212e-11
1.0666e-11
1.35256e-11
6.56889e-11
2.35225e-11
2.24416e-11
-2.5904e-11
-6.08355e-11
-4.01404e-11
-3.98213e-11
2.07306e-11
5.57869e-11
9.16866e-12
4.97638e-11
-3.73031e-11
-6.04903e-11
-4.95926e-11
-2.99691e-11
1.20896e-11
5.73187e-11
1.51366e-11
-3.10122e-12
-6.80463e-11
-3.92829e-11
-3.42242e-11
-2.577e-11
5.58148e-11
3.21961e-11
1.76251e-11
-1.11773e-11
-4.76324e-11
-1.44262e-11
2.09814e-11
6.49851e-12
1.85388e-11
5.64098e-12
-8.37178e-12
-2.04303e-11
-1.98487e-11
-3.23202e-11
2.2556e-11
-2.51798e-11
5.85486e-11
-3.55283e-12
8.14755e-13
-4.53152e-11
-1.9073e-11
-4.62663e-11
-3.88699e-11
-3.15437e-12
1.26752e-11
2.39813e-11
2.26284e-11
-9.28057e-11
5.62971e-11
-9.02508e-11
-3.25235e-11
2.21451e-11
-5.50768e-11
1.71947e-11
1.84973e-12
-5.7657e-11
3.55693e-11
-5.50247e-11
-2.84018e-11
3.06329e-11
-5.3461e-11
4.42231e-11
-2.47669e-11
-8.50619e-13
3.06482e-11
2.01311e-11
7.80914e-12
1.07298e-11
-8.07858e-13
2.45353e-13
-1.78704e-11
-2.78607e-12
-1.80472e-11
2.27329e-11
5.89057e-12
3.46111e-11
-5.38372e-13
7.24391e-12
-6.04874e-12
-1.35624e-11
-2.65449e-11
-1.83734e-11
-1.98659e-11
5.99659e-12
-1.97733e-11
2.25362e-11
9.82792e-12
2.66962e-11
-8.42778e-12
-1.42674e-11
-3.43891e-11
-2.91149e-11
-2.5077e-11
-7.46187e-12
1.99861e-12
8.49427e-12
-6.37098e-12
-2.00316e-11
-2.02131e-11
-3.96182e-11
-1.81876e-11
-2.67918e-11
-5.0593e-13
1.29672e-11
1.96254e-11
5.17126e-12
5.5586e-12
-1.08323e-13
5.52506e-12
-1.00653e-11
7.17108e-12
-4.60993e-12
1.72777e-11
9.49492e-12
2.05064e-11
9.19332e-12
7.54571e-12
-1.51376e-12
-2.85505e-12
-1.29988e-11
-6.88808e-12
-1.03227e-11
3.32083e-12
-2.42694e-12
1.46408e-11
7.47391e-12
1.67958e-11
-5.66682e-13
-6.22635e-12
-1.18231e-11
-1.78581e-11
-1.0802e-11
-8.48247e-12
-1.25603e-12
-1.05121e-12
-2.40428e-12
-1.88827e-11
-1.16808e-11
-3.03411e-11
-1.89233e-11
-1.95487e-11
-1.13531e-11
5.3976e-12
8.27255e-12
1.4879e-12
4.07079e-12
1.61926e-13
6.85114e-12
-1.97846e-12
9.31159e-12
1.50612e-12
1.37932e-11
7.86081e-12
1.41519e-11
8.05455e-12
7.35213e-12
3.4972e-12
1.70251e-12
-3.02399e-12
-3.66665e-13
-3.91462e-12
4.21172e-12
1.39688e-12
9.32955e-12
8.33259e-12
9.86038e-12
4.26354e-12
-2.15694e-12
-3.81159e-12
-9.78256e-12
-4.02837e-12
-8.26529e-12
1.95628e-12
-7.03543e-12
-5.26301e-13
-1.63997e-11
-8.83301e-12
-2.20339e-11
-1.27624e-11
-1.56188e-11
-5.79499e-12
-1.56931e-12
2.47776e-12
7.43585e-13
3.32728e-12
6.38891e-13
6.95592e-12
5.62386e-13
9.38818e-12
2.98192e-12
1.13738e-11
6.28034e-12
1.08536e-11
6.42064e-12
7.21196e-12
4.09752e-12
4.02579e-12
8.33437e-13
2.8976e-12
3.46986e-13
4.69837e-12
2.81579e-12
6.86097e-12
6.62189e-12
6.05452e-12
4.93052e-12
-4.65317e-13
1.02198e-12
-5.87373e-12
1.98123e-13
-7.44114e-12
2.14582e-12
-8.98281e-12
6.43547e-14
-1.43179e-11
-4.85144e-12
-1.71178e-11
-7.07551e-12
-1.33943e-11
-3.21216e-12
-5.43228e-12
-7.34247e-13
4.47418e-13
2.87991e-12
7.42985e-13
6.66041e-12
1.23032e-12
8.90091e-12
2.71785e-12
9.88632e-12
4.36409e-12
9.20745e-12
4.50372e-12
7.07242e-12
3.37793e-12
5.15169e-12
1.91107e-12
4.36458e-12
1.6613e-12
4.94828e-12
2.9761e-12
5.54632e-12
4.7534e-12
4.27739e-12
4.182e-12
1.06254e-13
2.34346e-12
-4.03499e-12
1.61197e-12
-6.70944e-12
1.90823e-12
-9.27885e-12
4.15347e-13
-1.28248e-11
-2.23366e-12
-1.44685e-11
-3.40448e-12
-1.22233e-11
-1.62477e-12
-7.21173e-12
-2.35892e-12
2.97915e-13
2.58202e-12
6.74273e-13
6.28408e-12
1.18192e-12
8.39331e-12
2.0151e-12
9.05317e-12
2.79549e-12
8.4271e-12
2.90505e-12
6.96291e-12
2.42949e-12
5.6273e-12
1.81865e-12
4.97548e-12
1.7391e-12
5.0279e-12
2.34406e-12
4.94144e-12
3.08082e-12
3.54071e-12
2.92791e-12
2.59262e-13
2.14606e-12
-3.25304e-12
1.61782e-12
-6.18109e-12
1.3903e-12
-9.05121e-12
4.65624e-13
-1.19e-11
-8.59345e-13
-1.31434e-11
-1.41861e-12
-1.16638e-11
-7.01627e-13
-7.92857e-12
-3.06052e-12
2.70767e-13
6.3828e-13
1.05741e-12
1.53024e-12
1.89919e-12
1.97061e-12
1.78667e-12
1.5477e-12
1.51075e-12
1.71335e-12
1.86379e-12
1.54624e-12
1.02313e-12
7.11643e-13
5.37068e-13
2.089e-13
-2.01015e-13
-3.74849e-13
-1.9304e-13
)
;

boundaryField
{
    top
    {
        type            calculated;
        value           nonuniform List<scalar> 
20
(
2.31126e-12
5.91658e-12
7.97419e-12
8.58035e-12
8.05817e-12
6.89151e-12
5.81126e-12
5.21446e-12
5.06488e-12
4.73886e-12
3.3903e-12
5.7684e-13
-2.7299e-12
-5.86958e-12
-8.8766e-12
-1.15718e-11
-1.27334e-11
-1.149e-11
-8.11034e-12
-3.25356e-12
)
;
    }
    left
    {
        type            calculated;
        value           uniform 0;
    }
    right
    {
        type            calculated;
        value           uniform 0;
    }
    bottom
    {
        type            calculated;
        value           uniform 0;
    }
    front
    {
        type            empty;
        value           nonuniform List<scalar> 0();
    }
    back
    {
        type            empty;
        value           nonuniform List<scalar> 0();
    }
    frontAndBack
    {
        type            empty;
        value           nonuniform List<scalar> 0();
    }
}


// ************************************************************************* //
