/*--------------------------------*- C++ -*----------------------------------*\
  =========                 |
  \\      /  F ield         | OpenFOAM: The Open Source CFD Toolbox
   \\    /   O peration     | Website:  https://openfoam.org
    \\  /    A nd           | Version:  10
     \\/     M anipulation  |
\*---------------------------------------------------------------------------*/
FoamFile
{
    format      ascii;
    class       volScalarField;
    location    "0.06";
    object      T;
}
// * * * * * * * * * * * * * * * * * * * * * * * * * * * * * * * * * * * * * //

dimensions      [0 0 0 1 0 0 0];

internalField   nonuniform List<scalar> 
800
(
300.006
300.01
300.018
300.032
300.051
300.075
300.104
300.134
300.159
300.174
300.173
300.158
300.133
300.103
300.075
300.05
300.031
300.018
300.01
300.006
300.012
300.019
300.034
300.056
300.087
300.124
300.166
300.208
300.242
300.263
300.263
300.242
300.207
300.165
300.124
300.086
300.056
300.034
300.019
300.012
300.027
300.042
300.072
300.116
300.173
300.238
300.306
300.371
300.423
300.453
300.453
300.422
300.37
300.306
300.238
300.173
300.116
300.072
300.042
300.027
300.054
300.085
300.144
300.229
300.333
300.444
300.553
300.649
300.724
300.766
300.766
300.724
300.649
300.553
300.444
300.334
300.231
300.145
300.086
300.055
300.1
300.156
300.263
300.412
300.588
300.768
300.933
301.071
301.172
301.226
301.227
301.173
301.073
300.935
300.77
300.591
300.415
300.264
300.157
300.1
300.163
300.253
300.426
300.666
300.945
301.223
301.465
301.654
301.784
301.85
301.851
301.786
301.658
301.469
301.227
300.949
300.67
300.428
300.254
300.163
300.235
300.365
300.616
300.971
301.385
301.793
302.139
302.393
302.556
302.635
302.637
302.561
302.4
302.144
301.798
301.389
300.973
300.617
300.365
300.235
300.303
300.471
300.804
301.286
301.862
302.435
302.916
303.258
303.463
303.557
303.56
303.47
303.264
302.92
302.438
301.862
301.284
300.802
300.47
300.302
300.352
300.55
300.957
301.567
302.319
303.086
303.734
304.189
304.453
304.569
304.573
304.46
304.194
303.735
303.082
302.309
301.555
300.947
300.545
300.349
300.372
300.588
301.051
301.775
302.703
303.678
304.519
305.114
305.456
305.605
305.607
305.46
305.111
304.506
303.654
302.672
301.746
301.03
300.578
300.366
300.36
300.58
301.072
301.881
302.962
304.143
305.192
305.95
306.393
306.584
306.583
306.386
305.929
305.151
304.087
302.902
301.832
301.041
300.564
300.352
300.321
300.531
301.022
301.872
303.067
304.43
305.684
306.618
307.178
307.423
307.417
307.154
306.566
305.603
304.33
302.973
301.804
300.983
300.512
300.312
300.266
300.454
300.916
301.759
303.007
304.501
305.937
307.046
307.732
308.038
308.022
307.68
306.948
305.796
304.343
302.868
301.665
300.865
300.431
300.255
300.204
300.363
300.771
301.556
302.783
304.331
305.896
307.159
307.971
308.34
308.31
307.876
306.991
305.668
304.091
302.587
301.432
300.708
300.337
300.193
300.145
300.27
300.604
301.283
302.406
303.908
305.515
306.884
307.805
308.231
308.18
307.649
306.626
305.188
303.585
302.161
301.139
300.537
300.243
300.135
300.096
300.185
300.436
300.974
301.916
303.258
304.788
306.173
307.151
307.612
307.535
306.924
305.818
304.371
302.879
301.649
300.827
300.372
300.162
300.086
300.058
300.117
300.288
300.673
301.386
302.465
303.78
305.05
305.996
306.447
306.346
305.706
304.624
303.316
302.076
301.131
300.541
300.233
300.098
300.051
300.032
300.068
300.173
300.419
300.897
301.662
302.654
303.674
304.472
304.855
304.741
304.157
303.238
302.212
301.318
300.685
300.315
300.131
300.054
300.027
300.016
300.036
300.093
300.233
300.514
300.983
301.625
302.319
302.884
303.152
303.047
302.6
301.947
301.271
300.725
300.363
300.162
300.066
300.026
300.013
300.008
300.017
300.046
300.115
300.259
300.507
300.856
301.247
301.572
301.722
301.644
301.367
300.988
300.623
300.344
300.168
300.073
300.03
300.012
300.006
300.003
300.007
300.02
300.051
300.116
300.227
300.386
300.567
300.716
300.782
300.736
300.599
300.422
300.26
300.141
300.068
300.029
300.012
300.005
300.002
300.001
300.003
300.008
300.02
300.046
300.089
300.15
300.218
300.273
300.295
300.275
300.22
300.153
300.094
300.05
300.024
300.01
300.004
300.002
300.001
300
300.001
300.003
300.007
300.016
300.03
300.05
300.072
300.089
300.094
300.087
300.069
300.049
300.03
300.016
300.008
300.003
300.001
300.001
300
300
300
300.001
300.002
300.005
300.009
300.015
300.021
300.025
300.026
300.024
300.019
300.014
300.008
300.004
300.002
300.001
300
300
300
300
300
300
300.001
300.001
300.002
300.004
300.005
300.006
300.006
300.006
300.005
300.003
300.002
300.001
300.001
300
300
300
300
300
300
300
300
300
300.001
300.001
300.001
300.001
300.001
300.001
300.001
300.001
300.001
300
300
300
300
300
300
300
300
300
300
300
300
300
300
300
300
300
300
300
300
300
300
300
300
300
300
300
300
300
300
300
300
300
300
300
300
300
300
300
300
300
300
300
300
300
300
300
300
300
300
300
300
300
300
300
300
300
300
300
300
300
300
300
300
300
300
300
300
300
300
300
300
300
300
300
300
300
300
300
300
300
300
300
300
300
300
300
300
300
300
300
300
300
300
300
300
300
300
300
300
300
300
300
300
300
300
300
300
300
300
300
300
300
300
300
300
300
300
300
300
300
300
300
300
300
300
300
300
300
300
300
300
300
300
300
300
300
300
300
300
300
300
300
300
300
300
300
300
300
300
300
300
300
300
300
300
300
300
300
300
300
300
300
300
300
300
300
300
300
300
300
300
300
300
300
300
300
300
300
300
300
300
300
300
300
300
300
300
300
300
300
300
300
300
300
300
300
300
300
300
300
300
300
300
300
300
300
300
300
300
300
300
300
300
300
300
300
300
300
300
300
300
300
300
300
300
300
300
300
300
300
300
300
300
300
300
300
300
300
300
300
300
300
300
300
300
300
300
300
300
300
300
300
300
300
300
300
300
300
300
300
300
300
300
300
300
300
300
300
300
300
300
300
300
300
300
300
300
300
300
300
300
300
300
300
300
)
;

boundaryField
{
    top
    {
        type            inletOutlet;
        inletValue      uniform 300;
        value           nonuniform List<scalar> 
20
(
300
300
300
300
300
300
300
300
300
300
300
300
300
300
300
300
300
300
300
300
)
;
    }
    left
    {
        type            zeroGradient;
    }
    right
    {
        type            zeroGradient;
    }
    bottom
    {
        type            zeroGradient;
    }
    front
    {
        type            empty;
    }
    back
    {
        type            empty;
    }
    frontAndBack
    {
        type            empty;
    }
}


// ************************************************************************* //
