/*--------------------------------*- C++ -*----------------------------------*\
  =========                 |
  \\      /  F ield         | OpenFOAM: The Open Source CFD Toolbox
   \\    /   O peration     | Website:  https://openfoam.org
    \\  /    A nd           | Version:  10
     \\/     M anipulation  |
\*---------------------------------------------------------------------------*/
FoamFile
{
    format      ascii;
    class       volVectorField;
    location    "0.06";
    object      U;
}
// * * * * * * * * * * * * * * * * * * * * * * * * * * * * * * * * * * * * * //

dimensions      [0 1 -1 0 0 0 0];

internalField   nonuniform List<vector> 
800
(
(5.49745e-07 -2.80879e-07 0)
(3.43836e-05 -8.08263e-06 0)
(0.000100987 -1.6228e-05 0)
(0.000178582 -1.67058e-05 0)
(0.00024168 -1.08564e-05 0)
(0.00027303 -3.42147e-06 0)
(0.000263292 5.71775e-06 0)
(0.00021411 1.13465e-05 0)
(0.000134172 1.7638e-05 0)
(3.50983e-05 1.97764e-05 0)
(-6.79486e-05 1.86536e-05 0)
(-0.000162855 1.64799e-05 0)
(-0.00023779 1.0593e-05 0)
(-0.000282234 6.54823e-06 0)
(-0.000286716 -4.1543e-06 0)
(-0.000248007 -1.3263e-05 0)
(-0.00017716 -1.84824e-05 0)
(-9.80948e-05 -1.09325e-05 0)
(-3.1022e-05 -9.02846e-06 0)
(2.11941e-06 1.9929e-06 0)
(1.02863e-05 -3.5313e-05 0)
(0.000110123 -0.000100548 0)
(0.000266226 -0.000140599 0)
(0.000431998 -0.000134358 0)
(0.000562726 -8.87098e-05 0)
(0.0006253 -2.21096e-05 0)
(0.000597367 6.20182e-05 0)
(0.000479702 0.000124588 0)
(0.00029354 0.000174763 0)
(6.72603e-05 0.000194341 0)
(-0.00016871 0.0001897 0)
(-0.000388312 0.000165468 0)
(-0.000563575 0.000114868 0)
(-0.000663929 4.85184e-05 0)
(-0.00067326 -3.29091e-05 0)
(-0.000597522 -0.000102078 0)
(-0.000454962 -0.000145846 0)
(-0.000275844 -0.000139208 0)
(-0.000108946 -0.000106366 0)
(-8.06596e-06 -3.05171e-05 0)
(1.6842e-05 -0.000109512 0)
(0.000169792 -0.000266678 0)
(0.000389907 -0.000334681 0)
(0.000611012 -0.000308409 0)
(0.000778287 -0.000198648 0)
(0.000848412 -3.81877e-05 0)
(0.000809235 0.000145559 0)
(0.000657022 0.000306732 0)
(0.000406536 0.000422883 0)
(9.72542e-05 0.000474505 0)
(-0.000231935 0.000467114 0)
(-0.00053526 0.000404029 0)
(-0.000771894 0.000282519 0)
(-0.000908461 0.000113504 0)
(-0.000928643 -6.87119e-05 0)
(-0.000833318 -0.000230084 0)
(-0.000642777 -0.000335958 0)
(-0.000400835 -0.000351918 0)
(-0.000169575 -0.000276955 0)
(-1.63956e-05 -0.000104037 0)
(2.63477e-05 -0.000213278 0)
(0.000217126 -0.00048374 0)
(0.000477796 -0.000578558 0)
(0.000739116 -0.000523373 0)
(0.000935257 -0.0003293 0)
(0.00101614 -4.8683e-05 0)
(0.000956548 0.000255113 0)
(0.000765981 0.000532637 0)
(0.000473161 0.000730835 0)
(0.000111648 0.000827338 0)
(-0.000272536 0.000817102 0)
(-0.000626829 0.000701757 0)
(-0.000903248 0.000489597 0)
(-0.00107033 0.00020428 0)
(-0.00110365 -0.000106098 0)
(-0.000996522 -0.000386766 0)
(-0.000774642 -0.000574489 0)
(-0.000486655 -0.000618987 0)
(-0.000208985 -0.000497578 0)
(-2.10043e-05 -0.000203722 0)
(2.58724e-05 -0.000333298 0)
(0.000230002 -0.000727229 0)
(0.000521659 -0.000862565 0)
(0.000820966 -0.000770831 0)
(0.00104147 -0.000478174 0)
(0.00112995 -5.97366e-05 0)
(0.00106043 0.000395001 0)
(0.000844018 0.000791554 0)
(0.000517288 0.00107851 0)
(0.000120313 0.00122246 0)
(-0.000299903 0.00120885 0)
(-0.000689394 0.00103768 0)
(-0.000998047 0.00072571 0)
(-0.00118665 0.000314547 0)
(-0.00122818 -0.000142904 0)
(-0.00111543 -0.00055957 0)
(-0.000871138 -0.000846235 0)
(-0.000548993 -0.000926477 0)
(-0.000235553 -0.000753125 0)
(-2.28047e-05 -0.000320037 0)
(2.35056e-05 -0.000457867 0)
(0.000242351 -0.000991718 0)
(0.00056368 -0.00118028 0)
(0.000882603 -0.00103865 0)
(0.0011072 -0.000634422 0)
(0.00119327 -6.90185e-05 0)
(0.00112059 0.0005449 0)
(0.000893126 0.00107531 0)
(0.00054696 0.00145215 0)
(0.000127681 0.0016459 0)
(-0.00031579 0.00162796 0)
(-0.00072621 0.00139972 0)
(-0.00105271 0.000983705 0)
(-0.00126352 0.000445797 0)
(-0.00131925 -0.000177263 0)
(-0.00119963 -0.000745456 0)
(-0.000938908 -0.00114152 0)
(-0.000596082 -0.00126245 0)
(-0.000259675 -0.00103564 0)
(-2.65621e-05 -0.000449556 0)
(2.80733e-05 -0.000588892 0)
(0.000260794 -0.00127674 0)
(0.000589165 -0.00151121 0)
(0.000910539 -0.00131394 0)
(0.00113905 -0.000790655 0)
(0.00122282 -7.36092e-05 0)
(0.00114514 0.000698445 0)
(0.000915358 0.00136923 0)
(0.000561817 0.00184192 0)
(0.000129753 0.00208734 0)
(-0.000324862 0.00206354 0)
(-0.000744845 0.00177646 0)
(-0.00108872 0.00126195 0)
(-0.00130218 0.000581953 0)
(-0.00134891 -0.000208723 0)
(-0.00122952 -0.000938984 0)
(-0.000965667 -0.001449 0)
(-0.000617122 -0.00161309 0)
(-0.000271139 -0.00133577 0)
(-2.81482e-05 -0.000589055 0)
(2.38598e-05 -0.000723774 0)
(0.000254902 -0.00157142 0)
(0.000582342 -0.00183987 0)
(0.000896532 -0.00158862 0)
(0.00111771 -0.000944751 0)
(0.00119645 -7.27946e-05 0)
(0.00112086 0.000850689 0)
(0.000902425 0.00165735 0)
(0.000556383 0.00223859 0)
(0.00012553 0.00253512 0)
(-0.000325224 0.00250319 0)
(-0.000740651 0.00215703 0)
(-0.00107816 0.00154872 0)
(-0.00128934 0.000710873 0)
(-0.00132612 -0.000252829 0)
(-0.0011969 -0.00113233 0)
(-0.000941358 -0.00175492 0)
(-0.000603146 -0.00196401 0)
(-0.000265405 -0.00163835 0)
(-2.78221e-05 -0.000730226 0)
(3.28791e-05 -0.000858218 0)
(0.000248551 -0.00185066 0)
(0.000538903 -0.00215304 0)
(0.000827549 -0.00184953 0)
(0.00103333 -0.00108992 0)
(0.00110911 -7.16226e-05 0)
(0.00104552 0.000989602 0)
(0.00084348 0.00193168 0)
(0.000516949 0.00262259 0)
(0.000117653 0.00296481 0)
(-0.000299438 0.00292615 0)
(-0.000691688 0.00252819 0)
(-0.00100082 0.00181168 0)
(-0.0011719 0.00082501 0)
(-0.00119795 -0.000299072 0)
(-0.00108887 -0.00131202 0)
(-0.000860692 -0.00204008 0)
(-0.000554462 -0.00229698 0)
(-0.00024168 -0.0019281 0)
(-2.31621e-05 -0.000862764 0)
(2.17179e-05 -0.000977605 0)
(0.000192078 -0.00208724 0)
(0.000430335 -0.00242759 0)
(0.000674304 -0.0020835 0)
(0.00086219 -0.00122983 0)
(0.000945463 -7.9606e-05 0)
(0.000892642 0.00111551 0)
(0.000705458 0.00218803 0)
(0.00041883 0.00296621 0)
(7.56064e-05 0.00334912 0)
(-0.000288345 0.00330794 0)
(-0.000623532 0.00285876 0)
(-0.000878155 0.00203194 0)
(-0.00101274 0.000906968 0)
(-0.00101992 -0.000338576 0)
(-0.000909451 -0.00147553 0)
(-0.000710939 -0.00228393 0)
(-0.000460594 -0.00258657 0)
(-0.000202609 -0.00218517 0)
(-1.91511e-05 -0.000979845 0)
(1.86072e-05 -0.0010673 0)
(0.000136744 -0.00226243 0)
(0.00029566 -0.00263846 0)
(0.000481288 -0.00228566 0)
(0.000646971 -0.00136601 0)
(0.000729656 -9.95493e-05 0)
(0.000693438 0.0012254 0)
(0.000540657 0.00241071 0)
(0.000305542 0.00325366 0)
(2.75499e-05 0.00367095 0)
(-0.00026155 0.00362614 0)
(-0.000521205 0.00312241 0)
(-0.000717498 0.00220951 0)
(-0.000820869 0.000966315 0)
(-0.000805092 -0.000397573 0)
(-0.000689051 -0.0016287 0)
(-0.000516036 -0.00248695 0)
(-0.000321804 -0.00281207 0)
(-0.000152754 -0.00237298 0)
(-2.54657e-05 -0.00107821 0)
(1.52322e-05 -0.00113124 0)
(8.88272e-05 -0.00237573 0)
(0.000186765 -0.00278129 0)
(0.000296149 -0.00243123 0)
(0.000391524 -0.00147194 0)
(0.000449848 -0.000124071 0)
(0.000433333 0.0013053 0)
(0.000330976 0.00258034 0)
(0.000167469 0.00347534 0)
(-2.77662e-05 0.00391582 0)
(-0.000227189 0.00386313 0)
(-0.000402742 0.00331331 0)
(-0.000521887 0.00232948 0)
(-0.000558457 0.000988457 0)
(-0.000512249 -0.000472452 0)
(-0.000408938 -0.00176216 0)
(-0.000278659 -0.00264786 0)
(-0.000153251 -0.00296585 0)
(-4.83796e-05 -0.00248603 0)
(5.66008e-06 -0.00113349 0)
(7.40057e-06 -0.00116428 0)
(1.73571e-05 -0.00242399 0)
(2.72564e-05 -0.00284775 0)
(4.40414e-05 -0.0024924 0)
(6.71377e-05 -0.00152612 0)
(9.60435e-05 -0.000144014 0)
(9.09982e-05 0.0013533 0)
(4.45278e-05 0.00267893 0)
(-2.44989e-05 0.00360715 0)
(-0.000106744 0.00405832 0)
(-0.0001855 0.00399528 0)
(-0.000243767 0.0034102 0)
(-0.000260351 0.00236729 0)
(-0.000230555 0.000961625 0)
(-0.00016602 -0.000546469 0)
(-8.91139e-05 -0.00185702 0)
(-2.58643e-05 -0.00273707 0)
(-4.86298e-06 -0.00302991 0)
(3.68152e-06 -0.00253209 0)
(7.11766e-06 -0.00113962 0)
(-4.20021e-06 -0.00115591 0)
(-5.74951e-05 -0.00239551 0)
(-0.00014772 -0.00280723 0)
(-0.000242496 -0.00246494 0)
(-0.000297228 -0.00152393 0)
(-0.000304453 -0.000155852 0)
(-0.000289132 0.00136375 0)
(-0.00026461 0.00269125 0)
(-0.000229245 0.00362784 0)
(-0.0001915 0.00407841 0)
(-0.00014545 0.00400167 0)
(-8.07322e-05 0.003393 0)
(2.81299e-06 0.00232046 0)
(8.51349e-05 0.000901296 0)
(0.000162727 -0.000618914 0)
(0.00021602 -0.00190163 0)
(0.000198864 -0.00273257 0)
(0.00013149 -0.00300153 0)
(6.14944e-05 -0.00250662 0)
(8.2004e-06 -0.00111794 0)
(-1.35003e-05 -0.00110339 0)
(-0.000137174 -0.00228449 0)
(-0.00032345 -0.00265656 0)
(-0.000518585 -0.00234426 0)
(-0.000653576 -0.00146268 0)
(-0.000695581 -0.000163137 0)
(-0.000654108 0.00132249 0)
(-0.00056453 0.00262233 0)
(-0.00043879 0.00353623 0)
(-0.000282559 0.00397436 0)
(-0.000111092 0.00388523 0)
(6.57685e-05 0.0032685 0)
(0.000237942 0.00219637 0)
(0.000390606 0.000799853 0)
(0.000483026 -0.000677878 0)
(0.000494085 -0.00189987 0)
(0.000435628 -0.0026629 0)
(0.000305881 -0.00288912 0)
(0.000136803 -0.00239745 0)
(1.34238e-05 -0.00106494 0)
(-2.04354e-05 -0.00101097 0)
(-0.000209417 -0.00208682 0)
(-0.000480542 -0.00241723 0)
(-0.000750384 -0.00214261 0)
(-0.000951321 -0.00134426 0)
(-0.00103875 -0.000155987 0)
(-0.000988837 0.0012306 0)
(-0.000830249 0.00247368 0)
(-0.000615781 0.00334759 0)
(-0.000362267 0.00375369 0)
(-7.96036e-05 0.00365189 0)
(0.000206272 0.00304223 0)
(0.000471162 0.00199382 0)
(0.00068492 0.000649057 0)
(0.000789597 -0.000716395 0)
(0.00076049 -0.00184553 0)
(0.000629363 -0.00253693 0)
(0.000425924 -0.00269971 0)
(0.00019861 -0.00221343 0)
(2.59659e-05 -0.000974965 0)
(-2.5113e-05 -0.000887662 0)
(-0.000257343 -0.0018189 0)
(-0.000589574 -0.00210704 0)
(-0.000928022 -0.00187141 0)
(-0.00119605 -0.00116674 0)
(-0.00133183 -0.000119672 0)
(-0.00129042 0.00110672 0)
(-0.00109245 0.00225044 0)
(-0.000798887 0.00306822 0)
(-0.000448472 0.00343173 0)
(-6.80405e-05 0.00331304 0)
(0.00031229 0.00271999 0)
(0.000654462 0.00171755 0)
(0.000903717 0.000473404 0)
(0.00100442 -0.000742908 0)
(0.000947167 -0.00173926 0)
(0.000762836 -0.0023395 0)
(0.000502486 -0.00245077 0)
(0.000231617 -0.00198442 0)
(2.98612e-05 -0.000857522 0)
(-2.83407e-05 -0.000745155 0)
(-0.000282851 -0.00150975 0)
(-0.000648877 -0.00174447 0)
(-0.0010321 -0.00154028 0)
(-0.00134174 -0.000942205 0)
(-0.00150897 -5.44615e-05 0)
(-0.00149606 0.000986721 0)
(-0.00129609 0.00198106 0)
(-0.000952732 0.00270755 0)
(-0.000528535 0.00302123 0)
(-6.99588e-05 0.00288686 0)
(0.000378811 0.0023234 0)
(0.000760366 0.00139999 0)
(0.00101119 0.000299837 0)
(0.00109691 -0.000755691 0)
(0.00102088 -0.00160193 0)
(0.000813243 -0.00209856 0)
(0.0005301 -0.0021664 0)
(0.000241429 -0.00172933 0)
(3.03272e-05 -0.000728632 0)
(-2.77601e-05 -0.000595655 0)
(-0.00028577 -0.00118483 0)
(-0.000659056 -0.00135817 0)
(-0.00105177 -0.00118108 0)
(-0.00137463 -0.000692933 0)
(-0.00156246 3.65107e-05 0)
(-0.0015745 0.000892783 0)
(-0.00139475 0.00170369 0)
(-0.00104652 0.00230337 0)
(-0.000591538 0.00255299 0)
(-9.77855e-05 0.00240767 0)
(0.00037533 0.00188988 0)
(0.000759655 0.00107874 0)
(0.000998955 0.000138332 0)
(0.00107149 -0.000754128 0)
(0.000987462 -0.00145366 0)
(0.000782358 -0.00184994 0)
(0.000508486 -0.00187808 0)
(0.000231811 -0.00147315 0)
(3.00401e-05 -0.000600434 0)
(-2.5198e-05 -0.000450376 0)
(-0.00027166 -0.000864771 0)
(-0.000631024 -0.000975662 0)
(-0.00101212 -0.000822595 0)
(-0.00133336 -0.000432895 0)
(-0.00153106 0.000146483 0)
(-0.00155828 0.000818949 0)
(-0.00139926 0.00144678 0)
(-0.00107432 0.00190095 0)
(-0.000635425 0.00207487 0)
(-0.000152542 0.0019212 0)
(0.000303316 0.00146121 0)
(0.000665337 0.000772899 0)
(0.000886482 -1.08936e-05 0)
(0.000951368 -0.000745878 0)
(0.000874233 -0.00131221 0)
(0.000691249 -0.0016202 0)
(0.00044946 -0.00161306 0)
(0.000206182 -0.00123856 0)
(2.8103e-05 -0.000481773 0)
(-2.20165e-05 -0.000316225 0)
(-0.000248477 -0.000564513 0)
(-0.000580911 -0.000614348 0)
(-0.000936888 -0.00047989 0)
(-0.00124131 -0.000175413 0)
(-0.00143421 0.000263553 0)
(-0.00147154 0.000761759 0)
(-0.00133807 0.00121902 0)
(-0.00105182 0.00153442 0)
(-0.000659174 0.00162992 0)
(-0.000223674 0.00146826 0)
(0.000186162 0.00106728 0)
(0.000509568 0.000493861 0)
(0.000707266 -0.0001471 0)
(0.000769423 -0.000742279 0)
(0.000711008 -0.00119326 0)
(0.000563959 -0.00142674 0)
(0.000368071 -0.00138954 0)
(0.000171275 -0.00104063 0)
(2.55675e-05 -0.000378972 0)
(-1.88637e-05 -0.000195998 0)
(-0.000222737 -0.000291569 0)
(-0.000522431 -0.000283921 0)
(-0.000844313 -0.000163486 0)
(-0.00112014 6.48408e-05 0)
(-0.00129752 0.000378394 0)
(-0.00133911 0.00072189 0)
(-0.00123237 0.00102728 0)
(-0.000993265 0.00121971 0)
(-0.000661233 0.00124432 0)
(-0.000291061 0.00107379 0)
(5.81329e-05 0.000724551 0)
(0.0003347 0.000249441 0)
(0.000506671 -0.000270494 0)
(0.000568368 -0.000749976 0)
(0.000532386 -0.00110565 0)
(0.000424975 -0.00127833 0)
(0.000278858 -0.00121613 0)
(0.000133404 -0.000887239 0)
(2.34424e-05 -0.00029484 0)
(-1.67261e-05 -8.86907e-05 0)
(-0.000200047 -4.77152e-05 0)
(-0.000464807 1.00726e-05 0)
(-0.000748151 0.000117669 0)
(-0.000988035 0.000277208 0)
(-0.00114178 0.000483717 0)
(-0.00118104 0.000694593 0)
(-0.00109645 0.000872344 0)
(-0.000902896 0.000960866 0)
(-0.000632501 0.000926831 0)
(-0.000330397 0.000747401 0)
(-4.36817e-05 0.000440118 0)
(0.000185079 4.26181e-05 0)
(0.000329165 -0.000380395 0)
(0.000387964 -0.000770136 0)
(0.000370323 -0.00104954 0)
(0.000297239 -0.00117556 0)
(0.000195587 -0.00109306 0)
(9.88783e-05 -0.00078004 0)
(2.30827e-05 -0.00022908 0)
(-1.67304e-05 8.24031e-06 0)
(-0.00018474 0.000168011 0)
(-0.000412602 0.000263207 0)
(-0.000653394 0.00035949 0)
(-0.000851105 0.000454263 0)
(-0.000974762 0.000573581 0)
(-0.00100325 0.000669031 0)
(-0.000930212 0.000745914 0)
(-0.000771774 0.000748387 0)
(-0.000553631 0.000671699 0)
(-0.000312393 0.000485936 0)
(-8.18286e-05 0.000215925 0)
(0.000102981 -0.000125855 0)
(0.000216381 -0.000474324 0)
(0.000267151 -0.000799556 0)
(0.000258912 -0.00101775 0)
(0.000206343 -0.00111013 0)
(0.000131994 -0.0010104 0)
(7.33579e-05 -0.00071478 0)
(2.60647e-05 -0.000180185 0)
(-1.81086e-05 0.000101295 0)
(-0.000179737 0.000361092 0)
(-0.000362624 0.000472945 0)
(-0.000554332 0.000563785 0)
(-0.000701538 0.000593368 0)
(-0.000787183 0.000650257 0)
(-0.000793795 0.000633108 0)
(-0.000714617 0.000637272 0)
(-0.00057538 0.000561007 0)
(-0.000392215 0.000450272 0)
(-0.000198254 0.000235815 0)
(-1.88148e-05 -1.554e-05 0)
(0.000124208 -0.000290158 0)
(0.000207359 -0.000551448 0)
(0.000245712 -0.000823126 0)
(0.000234349 -0.000987287 0)
(0.00017994 -0.00105315 0)
(0.000100849 -0.000932638 0)
(5.78624e-05 -0.000672563 0)
(2.74818e-05 -0.000165052 0)
(-3.84482e-05 0.000238698 0)
(-0.000195233 0.000572854 0)
(-0.000310159 0.000669239 0)
(-0.000435304 0.000759827 0)
(-0.000522371 0.000751953 0)
(-0.000569511 0.000785456 0)
(-0.000542964 0.000650206 0)
(-0.000428955 0.000635218 0)
(-0.000300002 0.000540778 0)
(-0.000148758 0.000459105 0)
(1.11984e-06 0.000204198 0)
(0.000191161 -3.62229e-05 0)
(0.000343309 -0.000249118 0)
(0.000379891 -0.000458367 0)
(0.000379386 -0.00071484 0)
(0.000346219 -0.000844757 0)
(0.000258963 -0.000863412 0)
(0.000117633 -0.000714362 0)
(2.24108e-05 -0.000499391 0)
(3.1501e-05 4.78379e-05 0)
(-4.04847e-05 0.000230857 0)
(-0.00024607 0.000445762 0)
(-0.00026253 0.00036268 0)
(-0.000250595 0.000501907 0)
(-0.000263383 0.000430033 0)
(-0.000298118 0.000444776 0)
(-0.00021506 8.55251e-05 0)
(4.36742e-05 8.69131e-05 0)
(0.00019431 8.50108e-05 0)
(0.000277513 -1.90072e-06 0)
(0.000330587 -0.000412819 0)
(0.000563129 -0.000631507 0)
(0.000704443 -0.00072646 0)
(0.000678511 -0.000914551 0)
(0.000645711 -0.00131469 0)
(0.000639052 -0.00136922 0)
(0.000492931 -0.00138304 0)
(0.000225417 -0.00126187 0)
(6.85478e-05 -0.00114891 0)
(5.64417e-05 -0.000332564 0)
(-0.00024329 0.00125508 0)
(-0.000540153 0.0011916 0)
(-0.000330889 0.00100704 0)
(2.067e-05 0.00147225 0)
(-2.07638e-05 0.00176412 0)
(-8.27059e-05 0.00148041 0)
(6.36575e-05 0.000400305 0)
(0.000781954 0.000613186 0)
(0.000841996 0.00107137 0)
(0.000675196 0.000918754 0)
(0.000624143 -6.70212e-05 0)
(0.00117779 4.85486e-05 0)
(0.00123049 0.000585912 0)
(0.000996059 0.000315121 0)
(0.000910575 -0.000367371 0)
(0.00113052 0.000265738 0)
(0.000694977 0.000755409 0)
(0.00040048 0.000486858 0)
(0.000102158 9.99172e-05 0)
(0.000303361 0.0011185 0)
(-0.000629279 0.00127364 0)
(-0.000994173 -0.000507022 0)
(1.51192e-06 -0.001652 0)
(0.00123038 -0.000606091 0)
(0.00052754 0.00128487 0)
(-0.000499659 -5.96174e-05 0)
(0.000151343 -0.00280033 0)
(0.00237089 -0.00191525 0)
(0.00196484 0.000572755 0)
(0.000837275 6.44258e-05 0)
(0.000883064 -0.00324094 0)
(0.00285288 -0.00224043 0)
(0.00206115 -0.000607797 0)
(0.00123259 -0.0017015 0)
(0.00155404 -0.00426475 0)
(0.00299696 -0.00191506 0)
(0.00104062 -0.00098076 0)
(0.00036111 -0.00230986 0)
(4.62936e-05 -0.00335497 0)
(0.000556705 -0.000165791 0)
(-0.00163235 0.00320854 0)
(-0.00344402 0.00175856 0)
(0.000831826 -0.000309385 0)
(0.00411463 0.00104339 0)
(0.00218526 0.0045478 0)
(-0.00362225 0.00228953 0)
(-0.000471692 -0.00133771 0)
(0.00530283 -0.00081371 0)
(0.00393042 0.00488822 0)
(-0.00223021 0.00294996 0)
(-0.000204843 -0.000623925 0)
(0.0048626 0.000272914 0)
(0.00236369 0.00556722 0)
(-0.00201417 0.00212365 0)
(0.00139505 -0.000136429 0)
(0.00504765 0.00336457 0)
(0.00111691 0.00795651 0)
(-0.00108817 0.00294914 0)
(0.00155511 0.00193137 0)
(0.00162061 0.00467236 0)
(-0.000359587 0.00442133 0)
(-0.00349108 -0.00247045 0)
(0.0021187 -0.00872697 0)
(0.00320924 -0.00447564 0)
(0.00199456 0.00816242 0)
(-0.00673847 0.00172073 0)
(-0.00276016 -0.0125951 0)
(0.00119301 -0.00806174 0)
(0.00169235 0.00690488 0)
(-0.00607511 0.00355272 0)
(-0.002363 -0.0135915 0)
(0.000430128 -0.00661369 0)
(0.000892148 0.0054004 0)
(-0.0058246 -0.00173471 0)
(0.000175163 -0.0159327 0)
(0.000925176 -0.00292925 0)
(0.00111805 0.00331597 0)
(-0.00528772 -0.00623821 0)
(0.00356237 -0.0109072 0)
(0.000396295 0.00131004 0)
(0.00392444 0.0157855 0)
(0.00168498 -0.0058153 0)
(0.00286187 -0.0242403 0)
(-0.00240918 -0.000762081 0)
(-0.0023891 0.0332159 0)
(7.41117e-05 0.00733771 0)
(0.000266554 -0.0318195 0)
(-0.00329056 -0.0123222 0)
(-0.00122863 0.0350029 0)
(-0.000754728 0.0115049 0)
(-0.0020248 -0.0338935 0)
(-0.00487727 -0.00840408 0)
(-0.00307 0.0379548 0)
(-0.0017417 -0.00133532 0)
(-0.00306083 -0.0356019 0)
(-0.00680017 0.00360948 0)
(0.00120161 0.0361353 0)
(0.00183529 -0.0134772 0)
(0.00260482 -0.0249268 0)
(-0.00748978 0.0226882 0)
(0.00142595 0.00355107 0)
(0.000626426 -0.00147243 0)
(-0.000912223 -0.00585687 0)
(-0.0045845 0.00420057 0)
(-0.00570979 0.0133163 0)
(-0.00357527 0.00391667 0)
(-0.0042351 -0.00723862 0)
(-0.00839065 -0.00973819 0)
(-0.00493883 0.00710239 0)
(0.00274235 0.0100247 0)
(-0.00584618 -0.00125598 0)
(-0.0180747 -0.00641142 0)
(-0.00713939 0.000641019 0)
(0.00411485 0.00139979 0)
(-0.00321855 0.00152926 0)
(-0.0114287 -0.00673924 0)
(-0.004065 -0.00323231 0)
(0.00685299 -0.00175634 0)
(0.00631287 0.00227534 0)
(-0.00156555 0.00414406 0)
(0.00128085 0.00403981 0)
(0.00061481 -0.00111161 0)
(-0.00184559 -0.00304992 0)
(-0.00357889 0.00553493 0)
(-0.00139947 0.0106735 0)
(0.000516404 -7.89308e-05 0)
(-0.000209513 -0.00441861 0)
(-0.00303263 -0.00582452 0)
(-0.00516839 0.00251821 0)
(-0.00396154 0.00399545 0)
(-0.000171439 0.00742854 0)
(0.000547163 -0.00445799 0)
(-0.00434586 -0.00772339 0)
(-0.00618375 -0.00166135 0)
(-0.00178554 0.00316849 0)
(0.000273152 -0.00430901 0)
(-0.00284312 -0.009006 0)
(-0.00418843 -0.00805279 0)
(-0.000793552 0.00301997 0)
(5.27702e-05 0.00692213 0)
(0.00078742 0.00127347 0)
(0.000750708 0.000930709 0)
(-0.00124708 0.0011554 0)
(-0.0019234 0.00373902 0)
(0.000617366 0.00488017 0)
(0.00224085 0.00144253 0)
(0.000974114 -0.000801016 0)
(-0.00157093 -0.00261582 0)
(-0.00266782 -8.38301e-06 0)
(-0.00157588 0.00360233 0)
(0.000840748 0.00566165 0)
(0.00132505 -0.00218974 0)
(-0.0014314 -0.00606569 0)
(-0.00282694 -0.00156329 0)
(-0.00110279 0.00178878 0)
(0.00033455 -0.00457851 0)
(-0.0012066 -0.00826739 0)
(-0.00353292 -0.00446763 0)
(-0.00333227 0.00277833 0)
(-0.00102716 0.00193381 0)
(0.000197053 0.000988903 0)
(0.000256304 0.00123054 0)
(-0.00031291 0.0016418 0)
(-0.00024489 0.00310088 0)
(0.00101852 0.00342998 0)
(0.00182582 0.00145917 0)
(0.00130744 -7.41588e-05 0)
(3.04878e-06 -0.000530172 0)
(-0.000951385 0.000941047 0)
(-0.000551069 0.00225123 0)
(0.00113339 0.00249713 0)
(0.00166073 -0.000689141 0)
(-6.25135e-05 -0.00245865 0)
(-0.00119536 -0.00175395 0)
(-0.000151029 -0.00114714 0)
(0.000605038 -0.00347301 0)
(-0.000823124 -0.00500067 0)
(-0.00255375 -0.00351144 0)
(-0.00222911 0.000136897 0)
(-0.000388245 0.00106868 0)
(6.43752e-05 0.000723633 0)
(0.000156255 0.00141339 0)
(6.15717e-05 0.00191147 0)
(0.000288567 0.00246426 0)
(0.00097457 0.00240701 0)
(0.00138543 0.00147042 0)
(0.00114211 0.000645089 0)
(0.000479074 0.000364506 0)
(-4.55954e-05 0.000920921 0)
(0.000156831 0.00157854 0)
(0.00104595 0.001479 0)
(0.00136817 -0.000195818 0)
(0.000532466 -0.00144266 0)
(-0.000115448 -0.00156552 0)
(0.000262582 -0.00171304 0)
(0.000465346 -0.00304733 0)
(-0.000451712 -0.00377299 0)
(-0.00143663 -0.00281662 0)
(-0.00124012 -0.000808599 0)
(-0.000187581 9.59888e-05 0)
(2.35473e-05 0.000615993 0)
(0.000117828 0.00137512 0)
(0.000171389 0.00183859 0)
(0.000375773 0.00209424 0)
(0.000738134 0.00196021 0)
(0.000943783 0.00142927 0)
(0.00083216 0.000955663 0)
(0.000521797 0.000770084 0)
(0.000282701 0.000975607 0)
(0.000394812 0.00120785 0)
(0.000820524 0.000983287 0)
(0.000995431 -1.61891e-05 0)
(0.000647924 -0.000940795 0)
(0.000323229 -0.00140573 0)
(0.00038219 -0.00185543 0)
(0.000339652 -0.00268951 0)
(-0.00018284 -0.00308643 0)
(-0.000694152 -0.00251284 0)
(-0.000614257 -0.00131254 0)
(-8.889e-05 -0.00036277 0)
(1.16242e-05 0.000536611 0)
(9.36147e-05 0.00128743 0)
(0.000176102 0.00171886 0)
(0.000316905 0.00187027 0)
(0.000498292 0.00174029 0)
(0.000597591 0.00140447 0)
(0.000553462 0.00110147 0)
(0.00042013 0.000963121 0)
(0.000321895 0.00100625 0)
(0.000379003 0.00103073 0)
(0.000563782 0.000758584 0)
(0.000649821 5.27491e-05 0)
(0.000507061 -0.000700435 0)
(0.000354219 -0.00128054 0)
(0.0003174 -0.00183489 0)
(0.000227248 -0.00244756 0)
(-4.64751e-05 -0.00271767 0)
(-0.000289253 -0.00236936 0)
(-0.000263476 -0.00153826 0)
(-3.69556e-05 -0.000566154 0)
(1.69002e-05 0.000487253 0)
(8.82178e-05 0.00120782 0)
(0.000166865 0.00161748 0)
(0.000261025 0.00173933 0)
(0.000354037 0.00162956 0)
(0.00040159 0.00138246 0)
(0.0003851 0.00115543 0)
(0.000330153 0.00103466 0)
(0.000289955 0.00101105 0)
(0.000310343 0.000949652 0)
(0.000372713 0.000672136 0)
(0.000388599 8.52046e-05 0)
(0.000227856 -0.000573318 0)
(0.000163867 -0.00118309 0)
(0.000129576 -0.00177616 0)
(8.52091e-05 -0.00231216 0)
(-2.53563e-06 -0.00254378 0)
(-7.57955e-05 -0.0022966 0)
(-7.15077e-05 -0.0016215 0)
(-9.97176e-06 -0.000651822 0)
)
;

boundaryField
{
    top
    {
        type            pressureInletOutletVelocity;
        value           nonuniform List<vector> 
20
(
(1.69002e-05 0.000487253 0)
(8.82178e-05 0.00120782 0)
(0.000166865 0.00161748 0)
(0.000261025 0.00173933 0)
(0.000354037 0.00162956 0)
(0.00040159 0.00138246 0)
(0.0003851 0.00115543 0)
(0.000330153 0.00103466 0)
(0.000289955 0.00101105 0)
(0.000310343 0.000949652 0)
(0.000372713 0.000672136 0)
(0.000388599 8.52046e-05 0)
(0 -0.000573318 0)
(0 -0.00118309 0)
(0 -0.00177616 0)
(0 -0.00231216 0)
(0 -0.00254378 0)
(0 -0.0022966 0)
(0 -0.0016215 0)
(0 -0.000651822 0)
)
;
    }
    left
    {
        type            noSlip;
    }
    right
    {
        type            noSlip;
    }
    bottom
    {
        type            noSlip;
    }
    front
    {
        type            empty;
    }
    back
    {
        type            empty;
    }
    frontAndBack
    {
        type            empty;
    }
}


// ************************************************************************* //
