/*--------------------------------*- C++ -*----------------------------------*\
  =========                 |
  \\      /  F ield         | OpenFOAM: The Open Source CFD Toolbox
   \\    /   O peration     | Website:  https://openfoam.org
    \\  /    A nd           | Version:  10
     \\/     M anipulation  |
\*---------------------------------------------------------------------------*/
FoamFile
{
    format      ascii;
    class       volScalarField;
    location    "0.04";
    object      alpha.water;
}
// * * * * * * * * * * * * * * * * * * * * * * * * * * * * * * * * * * * * * //

dimensions      [0 0 0 0 0 0 0];

internalField   nonuniform List<scalar> 
800
(
0.999994
0.999993
0.999993
0.999993
0.999993
0.999993
0.999993
0.999993
0.999993
0.999993
0.999993
0.999993
0.999993
0.999993
0.999993
0.999993
0.999993
0.999992
0.999992
0.999996
0.999993
0.999993
0.999992
0.999992
0.999992
0.999992
0.999993
0.999992
0.999992
0.999993
0.999993
0.999993
0.999992
0.999992
0.999992
0.999993
0.999992
0.999992
0.999992
0.999996
0.999993
0.999992
0.999992
0.999992
0.999992
0.999992
0.999992
0.999992
0.999992
0.999992
0.999992
0.999992
0.999992
0.999992
0.999993
0.999992
0.999992
0.999992
0.999992
0.999996
0.999993
0.999992
0.999992
0.999992
0.999992
0.999992
0.999993
0.999992
0.999992
0.999992
0.999992
0.999992
0.999992
0.999992
0.999993
0.999992
0.999992
0.999992
0.999992
0.999996
0.999992
0.999993
0.999992
0.999992
0.999992
0.999992
0.999993
0.999992
0.999992
0.999992
0.999992
0.999992
0.999992
0.999993
0.999993
0.999992
0.999992
0.999992
0.999993
0.999997
0.999994
0.999994
0.999993
0.999992
0.999992
0.999993
0.999993
0.999993
0.999992
0.999992
0.999992
0.999992
0.999992
0.999994
0.999993
0.999992
0.999992
0.999992
0.999993
0.999997
0.999994
0.999994
0.999992
0.999992
0.999992
0.999993
0.999993
0.999992
0.999992
0.999993
0.999993
0.999992
0.999993
0.999994
0.999994
0.999993
0.999992
0.999992
0.999993
0.999997
0.999994
0.999992
0.999992
0.999992
0.999992
0.999993
0.999993
0.999992
0.999992
0.999993
0.999993
0.999992
0.999994
0.999994
0.999994
0.999992
0.999992
0.999992
0.999994
0.999997
0.999993
0.999992
0.999992
0.999992
0.999992
0.999994
0.999993
0.999992
0.999993
0.999993
0.999993
0.999992
0.999992
0.999994
0.999994
0.999992
0.999992
0.999992
0.999994
0.999997
0.999992
0.999992
0.999992
0.999994
0.999996
0.999994
0.999992
0.999992
0.999992
0.999993
0.999993
0.999992
0.999992
0.999992
0.999994
0.999996
0.999993
0.999995
0.999994
0.999997
0.999995
0.999995
0.999995
0.999996
0.999996
0.999994
0.999992
0.999992
0.999992
0.999992
0.999992
0.999992
0.999992
0.999992
0.999994
0.999996
0.999996
0.999996
0.999994
0.999997
0.999995
0.999995
0.999996
0.999996
0.999994
0.999994
0.999994
0.999992
0.999992
0.999992
0.999992
0.999992
0.999992
0.999994
0.999994
0.999995
0.999996
0.999994
0.999994
0.999997
0.999996
0.999996
0.999996
0.999994
0.999994
0.999994
0.999996
0.999994
0.999992
0.999992
0.999992
0.999993
0.999995
0.999996
0.999994
0.999994
0.999996
0.999994
0.999996
0.999998
0.999996
0.999996
0.999996
0.999996
0.999994
0.999994
0.999996
0.999997
0.999995
0.999993
0.999993
0.999995
0.999996
0.999996
0.999994
0.999995
0.999997
0.999994
0.999995
0.999998
0.999996
0.999996
0.999997
0.999997
0.999996
0.999994
0.999996
0.999997
0.999996
0.999996
0.999996
0.999996
0.999997
0.999996
0.999994
0.999996
0.999997
0.999997
0.999996
0.999998
0.999997
0.999997
0.999997
0.999998
0.999996
0.999995
0.999996
0.999997
0.999997
0.999997
0.999997
0.999997
0.999997
0.999996
0.999996
0.999997
0.999998
0.999997
0.999997
0.999998
0.999997
0.999998
0.999998
0.999998
0.999997
0.999996
0.999996
0.999997
0.999998
0.999997
0.999997
0.999997
0.999997
0.999997
0.999997
0.999997
0.999998
0.999998
0.999998
0.999999
0.999998
0.999998
0.999998
0.999998
0.999998
0.999997
0.999997
0.999997
0.999998
0.999998
0.999998
0.999998
0.999998
0.999997
0.999997
0.999998
0.999998
0.999998
0.999998
0.999999
0.999998
0.999999
0.999999
0.999999
0.999998
0.999998
0.999998
0.999998
0.999998
0.999998
0.999998
0.999998
0.999998
0.999998
0.999998
0.999999
0.999999
0.999999
0.999999
0.999999
0.999999
0.999999
0.999999
0.999999
0.999999
0.999999
0.999999
0.999999
0.999999
0.999999
0.999999
0.999999
0.999999
0.999999
0.999999
0.999999
0.999999
0.999999
0.999999
1
0.999999
0.999999
0.999999
0.999999
0.999999
0.999999
0.999999
0.999999
0.999999
0.999999
0.999999
0.999999
0.999999
0.999999
0.999999
0.999999
0.999999
0.999999
0.999999
1
1
1
1
1
1
1
1
1
1
1
1
1
1
1
1
1
1
1
1
1
1
1
1
1
1
1
1
1
1
1
1
1
1
1
1
1
1
1
1
1
1
1
1
1
1
1
1
1
1
1
1
1
1
1
1
1
1
1
1
1
1
1
1
1
1
1
1
1
1
1
1
1
1
1
1
1
1
1
1
1
1
1
1
1
1
1
1
1
1
1
1
1
1
1
1
1
1
0.999999
0.999999
1
0.999999
0.999999
0.999999
0.999999
0.999999
0.999999
0.999999
0.999999
0.999999
0.999999
0.999999
0.999999
0.999999
0.999999
0.999999
0.999999
0.999999
0.999999
0.999999
1
0.999999
0.999999
0.999999
0.999997
0.999999
0.999996
0.999999
0.999998
0.999999
0.999999
0.999999
0.999999
0.999996
0.999999
0.999994
0.999999
0.999996
0.999999
0.999999
1
0.999999
0.999999
0.999999
0.999992
0.999995
0.999996
0.999999
0.999998
0.999996
0.999996
0.999999
0.999999
0.999996
0.999993
0.999994
0.999999
0.999996
0.999993
0.999997
1
0.867734
0.874132
0.877963
0.872731
0.866812
0.873252
0.87878
0.871761
0.864328
0.865589
0.869864
0.870676
0.866722
0.864166
0.867715
0.877058
0.868592
0.864264
0.864783
0.87046
0.1258
0.132126
0.130696
0.127371
0.114937
0.129371
0.131367
0.128689
0.119807
0.129665
0.134543
0.132956
0.12961
0.121572
0.133679
0.139558
0.135826
0.125363
0.134855
0.140463
6.35519e-05
0.00033982
0.000216941
0.000327164
2.83793e-05
0.000353612
0.000291048
0.00056082
2.89087e-05
5.95361e-05
0.000268875
0.000163284
0.000219308
3.09116e-05
0.000411875
0.000441329
0.000505353
3.32683e-05
0.000104122
0.000184389
6.008e-05
0.00019517
3.00935e-05
0.000311587
1.8361e-05
0.000344956
2.98115e-05
0.000225739
1.60357e-05
5.77361e-05
8.3363e-05
8.79668e-06
0.000208665
1.6957e-05
0.000307959
1.7824e-05
0.000250051
1.9515e-05
9.99413e-05
1.56588e-05
2.46514e-06
1.54517e-07
2.49013e-07
9.24664e-10
7.00979e-12
6.25104e-10
8.38084e-08
1.56486e-07
8.66346e-07
1.65525e-06
1.49439e-06
1.03886e-07
2.17922e-07
2.45604e-09
1.23158e-07
1.81253e-07
4.24793e-08
2.26711e-07
1.97661e-07
8.88461e-08
2.0956e-08
1.40101e-07
3.95481e-10
5.39503e-13
3.29669e-15
1.80657e-15
2.46543e-13
5.49417e-08
2.64747e-08
3.22293e-08
1.43423e-07
6.85345e-09
2.13948e-07
6.67098e-12
1.19056e-07
1.4151e-10
4.22625e-08
2.16829e-09
3.54771e-08
7.25501e-10
1.11099e-10
5.41616e-10
6.17693e-12
9.39727e-16
7.96199e-16
9.65019e-16
1.80657e-15
4.55526e-12
4.69646e-10
4.20493e-10
1.27412e-09
2.87704e-10
6.67098e-12
2.78604e-12
2.81069e-12
1.11838e-12
2.34817e-12
5.92174e-11
2.01455e-11
8.58745e-12
8.06207e-14
1.10478e-12
7.62084e-17
8.07175e-16
7.96199e-16
9.30391e-16
5.33069e-15
4.24207e-12
1.07258e-11
3.84856e-12
7.65378e-12
5.17602e-12
2.28508e-11
6.58806e-12
9.38245e-12
1.03384e-12
1.02057e-11
3.57184e-13
8.97664e-14
4.3938e-14
8.93569e-18
1.57077e-15
7.61611e-17
7.12794e-15
9.51755e-16
9.46213e-15
3.48739e-15
9.87775e-14
2.15973e-13
5.87077e-14
3.96098e-13
6.43263e-13
1.2781e-12
2.81646e-13
3.00638e-13
1.09655e-13
3.99549e-13
4.92902e-14
1.1218e-15
2.79721e-15
3.53079e-18
1.03863e-16
5.61847e-17
3.31536e-17
1.0879e-17
2.22027e-17
4.01867e-17
8.0626e-16
6.17468e-15
2.13887e-14
4.18925e-14
5.97303e-14
4.71906e-14
1.17555e-14
5.22472e-15
2.76526e-15
8.64186e-15
3.39874e-15
8.68604e-16
4.32907e-17
1.00385e-18
1.30938e-18
4.35245e-19
2.02465e-19
1.33536e-19
1.38347e-19
2.76972e-19
2.81846e-18
5.84175e-17
5.67508e-16
1.28126e-15
1.64763e-15
8.96357e-16
4.56361e-16
3.59016e-16
2.95494e-16
2.02637e-16
6.23691e-17
2.32887e-17
1.87972e-17
)
;

boundaryField
{
    top
    {
        type            inletOutlet;
        inletValue      uniform 0;
        value           nonuniform List<scalar> 
20
(
0
0
0
0
0
0
0
2.81846e-18
5.84175e-17
5.67508e-16
1.28126e-15
1.64763e-15
8.96357e-16
4.56361e-16
3.59016e-16
2.95494e-16
2.02637e-16
6.23691e-17
2.32887e-17
0
)
;
    }
    left
    {
        type            zeroGradient;
    }
    right
    {
        type            zeroGradient;
    }
    bottom
    {
        type            zeroGradient;
    }
    front
    {
        type            empty;
    }
    back
    {
        type            empty;
    }
    frontAndBack
    {
        type            empty;
    }
}


// ************************************************************************* //
