/*--------------------------------*- C++ -*----------------------------------*\
  =========                 |
  \\      /  F ield         | OpenFOAM: The Open Source CFD Toolbox
   \\    /   O peration     | Website:  https://openfoam.org
    \\  /    A nd           | Version:  10
     \\/     M anipulation  |
\*---------------------------------------------------------------------------*/
FoamFile
{
    format      ascii;
    class       surfaceScalarField;
    location    "0.04";
    object      alphaPhi.water;
}
// * * * * * * * * * * * * * * * * * * * * * * * * * * * * * * * * * * * * * //

dimensions      [0 3 -1 0 0 0 0];

internalField   nonuniform List<scalar> 
1540
(
8.62397e-14
-8.63455e-14
4.13266e-13
-3.27151e-13
8.92269e-13
-4.79131e-13
1.36918e-12
-4.77036e-13
1.70802e-12
-3.38968e-13
1.81695e-12
-1.09048e-13
1.64984e-12
1.66981e-13
1.24303e-12
4.06682e-13
6.39975e-13
6.02922e-13
-6.06593e-14
7.00504e-13
-7.5034e-13
6.8955e-13
-1.33906e-12
5.88593e-13
-1.73456e-12
3.95369e-13
-1.89534e-12
1.60665e-13
-1.78057e-12
-1.14899e-13
-1.42165e-12
-3.59048e-13
-9.15061e-13
-5.06715e-13
-4.35152e-13
-4.80033e-13
-8.77999e-14
-3.47493e-13
-8.78695e-14
3.41488e-13
-4.27959e-13
1.18075e-12
-1.16656e-12
2.26411e-12
-1.56263e-12
3.28695e-12
-1.50002e-12
3.99093e-12
-1.04309e-12
4.20093e-12
-3.19185e-13
3.78787e-12
5.79903e-13
2.8345e-12
1.35991e-12
1.46086e-12
1.97642e-12
-1.27311e-13
2.28853e-12
-1.71042e-12
2.27251e-12
-3.06048e-12
1.93852e-12
-4.00764e-12
1.34239e-12
-4.39086e-12
5.43746e-13
-4.1464e-12
-3.59506e-13
-3.4157e-12
-1.08987e-12
-2.35375e-12
-1.5688e-12
-1.22139e-12
-1.61254e-12
-3.48146e-13
-1.22088e-12
-4.36088e-13
5.4327e-13
-9.7136e-13
1.7782e-12
-2.40162e-12
3.25953e-12
-3.0441e-12
4.62252e-12
-2.86314e-12
5.52576e-12
-1.94647e-12
5.72384e-12
-5.17403e-13
5.20984e-12
1.09377e-12
3.8841e-12
2.6855e-12
2.01603e-12
3.84435e-12
-1.58013e-13
4.46243e-12
-2.32946e-12
4.44382e-12
-4.18467e-12
3.79359e-12
-5.45969e-12
2.61728e-12
-5.9926e-12
1.07651e-12
-5.72942e-12
-6.2283e-13
-4.77901e-12
-2.04042e-12
-3.36169e-12
-2.98625e-12
-1.81503e-12
-3.15933e-12
-5.57756e-13
-2.4783e-12
-9.93918e-13
7.0893e-13
-1.68041e-12
2.21012e-12
-3.90295e-12
3.96709e-12
-4.80122e-12
5.56452e-12
-4.46072e-12
6.59917e-12
-2.98126e-12
6.8148e-12
-7.33177e-13
6.07829e-12
1.83012e-12
4.53358e-12
4.23007e-12
2.34612e-12
6.03168e-12
-1.92818e-13
7.00123e-12
-2.73017e-12
6.98102e-12
-4.90237e-12
5.96566e-12
-6.41552e-12
4.13029e-12
-7.06689e-12
1.72773e-12
-6.87415e-12
-8.15699e-13
-5.76158e-12
-3.15314e-12
-4.08844e-12
-4.65952e-12
-2.23951e-12
-5.00841e-12
-7.03211e-13
-4.01475e-12
-1.6972e-12
7.93979e-13
-2.47453e-12
2.45684e-12
-5.56597e-12
4.42813e-12
-6.77264e-12
6.1928e-12
-6.22553e-12
7.29081e-12
-4.07941e-12
7.46869e-12
-9.1119e-13
6.63677e-12
2.6619e-12
4.90802e-12
5.95868e-12
2.52766e-12
8.41189e-12
-2.2349e-13
9.75224e-12
-2.97606e-12
9.73346e-12
-5.33733e-12
8.32678e-12
-7.01657e-12
5.80939e-12
-7.80365e-12
2.51465e-12
-7.54785e-12
-1.07163e-12
-6.39748e-12
-4.30365e-12
-4.57425e-12
-6.48288e-12
-2.52217e-12
-7.06063e-12
-7.95582e-13
-5.74149e-12
-2.49286e-12
8.171e-13
-3.29176e-12
2.59788e-12
-7.34689e-12
4.72292e-12
-8.89785e-12
6.50901e-12
-8.01175e-12
7.60085e-12
-5.17139e-12
7.71678e-12
-1.02726e-12
6.81672e-12
3.56182e-12
5.01764e-12
7.75758e-12
2.56709e-12
1.08623e-11
-2.62198e-13
1.25814e-11
-3.079e-12
1.25501e-11
-5.49757e-12
1.07452e-11
-7.24995e-12
7.56164e-12
-8.08955e-12
3.35412e-12
-7.87672e-12
-1.2846e-12
-6.7175e-12
-5.463e-12
-4.82932e-12
-8.3712e-12
-2.68418e-12
-9.2059e-12
-8.57815e-13
-7.56802e-12
-3.35075e-12
8.42329e-13
-4.13421e-12
2.61963e-12
-9.12433e-12
4.68311e-12
-1.09615e-11
6.42152e-12
-9.7503e-12
7.44495e-12
-6.19495e-12
7.50602e-12
-1.08848e-12
6.59041e-12
4.47729e-12
4.82934e-12
9.51849e-12
2.39431e-12
1.32972e-11
-3.19092e-13
1.52947e-11
-3.03221e-12
1.52631e-11
-5.41964e-12
1.31325e-11
-7.12928e-12
9.27112e-12
-7.94663e-12
4.17132e-12
-7.78667e-12
-1.4447e-12
-6.6226e-12
-6.62719e-12
-4.80731e-12
-1.01866e-11
-2.69714e-12
-1.13162e-11
-8.68549e-13
-9.39676e-12
-4.21937e-12
7.93658e-13
-4.928e-12
2.47276e-12
-1.08036e-11
4.33414e-12
-1.2823e-11
5.911e-12
-1.13273e-11
6.80057e-12
-7.08466e-12
6.85212e-12
-1.14017e-12
5.98113e-12
5.34814e-12
4.3491e-12
1.11504e-11
2.15309e-12
1.54931e-11
-3.30035e-13
1.77776e-11
-2.79206e-12
1.7725e-11
-5.01591e-12
1.53562e-11
-6.57842e-12
1.08335e-11
-7.35265e-12
4.94542e-12
-7.17215e-12
-1.62532e-12
-6.16709e-12
-7.63238e-12
-4.48368e-12
-1.18702e-11
-2.52273e-12
-1.32773e-11
-8.13684e-13
-1.1106e-11
-5.03313e-12
7.06103e-13
-5.63421e-12
2.10452e-12
-1.22021e-11
3.68306e-12
-1.44016e-11
4.99934e-12
-1.26437e-11
5.78235e-12
-7.86782e-12
5.79423e-12
-1.15221e-12
5.07115e-12
6.07108e-12
3.63498e-12
1.25864e-11
1.754e-12
1.73739e-11
-3.42182e-13
1.98737e-11
-2.42081e-12
1.98035e-11
-4.2586e-12
1.71939e-11
-5.62092e-12
1.21957e-11
-6.27689e-12
5.60122e-12
-6.16128e-12
-1.74108e-12
-5.25424e-12
-8.53956e-12
-3.83206e-12
-1.32925e-11
-2.15017e-12
-1.49593e-11
-6.8836e-13
-1.25679e-11
-5.72155e-12
5.09646e-13
-6.14396e-12
1.50708e-12
-1.31997e-11
2.63153e-12
-1.55262e-11
3.58502e-12
-1.35974e-11
4.19096e-12
-8.47391e-12
4.27475e-12
-1.23615e-12
3.72606e-12
6.61964e-12
2.63679e-12
1.36756e-11
1.21174e-12
1.87988e-11
-3.77222e-13
2.14625e-11
-1.95378e-12
2.13799e-11
-3.31012e-12
1.85501e-11
-4.33236e-12
1.32178e-11
-4.73366e-12
6.0024e-12
-4.55984e-12
-1.91504e-12
-3.86212e-12
-9.23742e-12
-2.82903e-12
-1.43257e-11
-1.60692e-12
-1.61816e-11
-5.17473e-13
-1.36575e-11
-6.23909e-12
2.49847e-13
-6.39393e-12
7.31034e-13
-1.3681e-11
1.28153e-12
-1.60768e-11
1.8684e-12
-1.41844e-11
2.30216e-12
-8.9078e-12
2.41159e-12
-1.34574e-12
2.11914e-12
6.912e-12
1.45179e-12
1.43428e-11
5.66739e-13
1.96837e-11
-4.08275e-13
2.24374e-11
-1.35646e-12
2.23279e-11
-2.18755e-12
1.9381e-11
-2.76597e-12
1.37961e-11
-2.9444e-12
6.18075e-12
-2.68142e-12
-2.17817e-12
-2.18803e-12
-9.73095e-12
-1.51695e-12
-1.49969e-11
-8.75449e-13
-1.68232e-11
-3.67164e-13
-1.41659e-11
-6.60632e-12
-4.53069e-15
-6.38952e-12
-4.37688e-14
-1.36419e-11
-6.64821e-14
-1.60543e-11
3.67987e-14
-1.42878e-11
1.9458e-13
-9.0657e-12
3.1018e-13
-1.46147e-12
2.57051e-13
6.96502e-12
7.4709e-14
1.4525e-11
-1.92886e-13
1.99512e-11
-4.57073e-13
2.27015e-11
-6.97517e-13
2.25683e-11
-8.94611e-13
1.9578e-11
-9.62529e-13
1.38639e-11
-8.87543e-13
6.10565e-12
-6.1231e-13
-2.45353e-12
-3.30222e-13
-1.00132e-11
-1.59559e-13
-1.51677e-11
-2.93068e-14
-1.69536e-11
1.85488e-14
-1.42139e-11
-6.58783e-12
-2.62071e-13
-6.12757e-12
-8.20384e-13
-1.30837e-11
-1.42006e-12
-1.54548e-11
-1.8192e-12
-1.38887e-11
-1.9706e-12
-8.91442e-12
-1.84012e-12
-1.59207e-12
-1.65781e-12
6.78257e-12
-1.34782e-12
1.4215e-11
-9.77896e-13
1.95812e-11
-5.3095e-13
2.22544e-11
-6.59894e-14
2.21032e-11
4.0778e-13
1.91042e-11
8.70202e-13
1.34014e-11
1.26996e-12
5.70575e-12
1.55138e-12
-2.73506e-12
1.53371e-12
-9.9956e-12
1.23533e-12
-1.48695e-11
6.9339e-13
-1.64118e-11
2.53901e-13
-1.37745e-11
-6.33399e-12
-5.01056e-13
-5.62663e-12
-1.52484e-12
-1.20601e-11
-2.67566e-12
-1.43041e-11
-3.6315e-12
-1.2933e-11
-4.12753e-12
-8.41852e-12
-4.03705e-12
-1.68267e-12
-3.51575e-12
6.26113e-12
-2.71433e-12
1.34134e-11
-1.70531e-12
1.85722e-11
-6.32798e-13
2.11819e-11
4.89093e-13
2.09813e-11
1.60513e-12
1.79881e-11
2.5602e-12
1.24462e-11
3.28555e-12
4.98028e-12
3.50259e-12
-2.95222e-12
3.1872e-12
-9.68031e-12
2.37165e-12
-1.40541e-11
1.37626e-12
-1.54165e-11
4.62326e-13
-1.28607e-11
-5.87173e-12
-6.86672e-13
-4.94006e-12
-2.09341e-12
-1.06534e-11
-3.72714e-12
-1.26705e-11
-5.14228e-12
-1.1518e-11
-5.95502e-12
-7.60586e-12
-6.0319e-12
-1.60591e-12
-5.28049e-12
5.50959e-12
-4.01387e-12
1.21467e-11
-2.45621e-12
1.70144e-11
-7.44111e-13
1.94697e-11
1.00568e-12
1.92314e-11
2.66871e-12
1.6325e-11
4.06198e-12
1.10528e-11
4.96167e-12
4.08046e-12
5.1103e-12
-3.10092e-12
4.51698e-12
-9.0871e-12
3.35419e-12
-1.28914e-11
1.89347e-12
-1.39559e-11
6.00054e-13
-1.15674e-11
-5.27173e-12
-8.01017e-13
-4.13915e-12
-2.46729e-12
-8.98729e-12
-4.40399e-12
-1.07339e-11
-6.13077e-12
-9.79139e-12
-7.22026e-12
-6.51648e-12
-7.44356e-12
-1.38268e-12
-6.65182e-12
4.71771e-12
-5.11858e-12
1.06134e-11
-3.12782e-12
1.50235e-11
-8.79165e-13
1.72209e-11
1.40872e-12
1.69434e-11
3.51409e-12
1.42195e-11
5.21435e-12
9.35245e-12
6.15546e-12
3.13925e-12
6.16187e-12
-3.10743e-12
5.33882e-12
-8.26416e-12
3.9021e-12
-1.14548e-11
2.20016e-12
-1.22541e-11
7.08277e-13
-1.00757e-11
-4.56351e-12
-8.38614e-13
-3.30064e-12
-2.60342e-12
-7.2226e-12
-4.6768e-12
-8.66064e-12
-6.55995e-12
-7.90835e-12
-7.846e-12
-5.23054e-12
-8.21852e-12
-1.01026e-12
-7.53543e-12
4.03455e-12
-5.89047e-12
8.96827e-12
-3.63053e-12
1.27635e-11
-1.04127e-12
1.46316e-11
1.58807e-12
1.4314e-11
3.96121e-12
1.18462e-11
5.76088e-12
7.55268e-12
6.64502e-12
2.25501e-12
6.54765e-12
-3.01016e-12
5.58203e-12
-7.29864e-12
4.03595e-12
-9.90887e-12
2.25801e-12
-1.04762e-11
7.27298e-13
-8.54507e-12
-3.83626e-12
-8.13393e-13
-2.48735e-12
-2.53993e-12
-5.49618e-12
-4.59184e-12
-6.60885e-12
-6.49885e-12
-6.00145e-12
-7.85313e-12
-3.87637e-12
-8.32816e-12
-5.3532e-13
-7.7771e-12
3.48339e-12
-6.22563e-12
7.4167e-12
-3.92593e-12
1.04636e-11
-1.24089e-12
1.19464e-11
1.48205e-12
1.15909e-11
3.89162e-12
9.43654e-12
5.62227e-12
5.82193e-12
6.43241e-12
1.44478e-12
6.27483e-12
-2.85269e-12
5.2977e-12
-6.32161e-12
3.7958e-12
-8.40709e-12
2.10789e-12
-8.78844e-12
6.69894e-13
-7.10718e-12
-3.16642e-12
-7.44836e-13
-1.74261e-12
-2.34217e-12
-3.89895e-12
-4.25969e-12
-4.69144e-12
-6.0677e-12
-4.19355e-12
-7.38943e-12
-2.55474e-12
-7.92593e-12
1.08334e-15
-7.50718e-12
3.06454e-12
-6.14449e-12
6.05391e-12
-4.02329e-12
8.34235e-12
-1.48951e-12
9.41251e-12
1.08356e-12
9.01776e-12
3.32733e-12
7.19267e-12
4.90525e-12
4.24391e-12
5.6263e-12
7.2364e-13
5.47376e-12
-2.70024e-12
4.60444e-12
-5.45241e-12
3.28086e-12
-7.08361e-12
1.80946e-12
-7.31715e-12
5.67134e-13
-5.86497e-12
-2.59934e-12
-6.57243e-13
-1.08546e-12
-2.08078e-12
-2.47552e-12
-3.80239e-12
-2.96993e-12
-5.44074e-12
-2.55531e-12
-6.6638e-12
-1.33178e-12
-7.21624e-12
5.53428e-13
-6.93172e-12
2.77993e-12
-5.80633e-12
4.92842e-12
-3.99404e-12
6.52995e-12
-1.78938e-12
7.20775e-12
4.61599e-13
6.76668e-12
2.41906e-12
5.2351e-12
3.79517e-12
2.86771e-12
4.44137e-12
7.73378e-14
4.34889e-12
-2.60785e-12
3.66627e-12
-4.76989e-12
2.60537e-12
-6.02281e-12
1.42716e-12
-6.13904e-12
4.38278e-13
-4.87619e-12
-2.16111e-12
-5.71497e-13
-5.14048e-13
-1.81909e-12
-1.22803e-12
-3.33168e-12
-1.45745e-12
-4.78267e-12
-1.10442e-12
-5.87847e-12
-2.36077e-13
-6.42103e-12
1.09588e-12
-6.25845e-12
2.61725e-12
-5.38863e-12
4.0585e-12
-3.93181e-12
5.07304e-12
-2.13168e-12
5.40753e-12
-2.76753e-13
4.91165e-12
1.35193e-12
3.60632e-12
2.51588e-12
1.70366e-12
3.10632e-12
-5.13188e-13
3.10193e-12
-2.60357e-12
2.64048e-12
-4.30854e-12
1.87177e-12
-5.25419e-12
1.01744e-12
-5.28482e-12
3.00693e-13
-4.15954e-12
-1.86047e-12
-5.03101e-13
-1.1038e-14
-1.60422e-12
-1.27011e-13
-2.92686e-12
-1.3491e-13
-4.20671e-12
1.75324e-13
-5.16891e-12
7.26023e-13
-5.6985e-12
1.62538e-12
-5.64094e-12
2.55959e-12
-5.01244e-12
3.4299e-12
-3.89524e-12
3.95574e-12
-2.49318e-12
4.00537e-12
-1.02958e-12
3.44795e-12
2.85704e-13
2.29094e-12
1.2487e-12
7.40571e-13
1.80864e-12
-1.07323e-12
1.88522e-12
-2.68024e-12
1.64586e-12
-4.06928e-12
1.15419e-12
-4.76262e-12
6.23477e-13
-4.75422e-12
1.66214e-13
-3.70238e-12
-1.6943e-12
-4.60618e-13
4.49488e-13
-1.46264e-12
8.74912e-13
-2.62792e-12
1.03026e-12
-3.76674e-12
1.31404e-12
-4.58172e-12
1.5409e-12
-5.10934e-12
2.1529e-12
-5.13207e-12
2.58221e-12
-4.712e-12
3.00973e-12
-3.87625e-12
3.1199e-12
-2.82274e-12
2.95176e-12
-1.70891e-12
2.33402e-12
-6.54467e-13
1.2364e-12
1.32774e-13
-4.6768e-14
6.89079e-13
-1.62963e-12
7.95113e-13
-2.78637e-12
7.68274e-13
-4.04254e-12
4.91665e-13
-4.48611e-12
2.73422e-13
-4.53607e-12
5.0756e-14
-3.47982e-12
-1.6436e-12
-4.53087e-13
9.02481e-13
-1.40237e-12
1.82409e-12
-2.43113e-12
2.05891e-12
-3.45752e-12
2.34033e-12
-4.06317e-12
2.14645e-12
-4.61651e-12
2.70613e-12
-4.67537e-12
2.64097e-12
-4.42318e-12
2.75743e-12
-3.77802e-12
2.47463e-12
-3.01198e-12
2.18562e-12
-2.21101e-12
1.53294e-12
-1.35569e-12
3.8098e-13
-7.31079e-13
-6.71479e-13
-1.78365e-13
-2.18244e-12
-2.72601e-14
-2.93758e-12
5.74609e-14
-4.12736e-12
-3.86563e-14
-4.39009e-12
-2.67986e-14
-4.54804e-12
-3.86387e-14
-3.46809e-12
-1.68229e-12
-4.59117e-13
1.3615e-12
-1.4306e-12
2.79546e-12
-2.29703e-12
2.92522e-12
-3.22179e-12
3.26498e-12
-3.43493e-12
2.35947e-12
-4.09741e-12
3.3685e-12
-4.09303e-12
2.63648e-12
-3.97417e-12
2.63845e-12
-3.38152e-12
1.88187e-12
-2.84435e-12
1.64835e-12
-2.29603e-12
9.84509e-13
-1.75028e-12
-1.64875e-13
-1.25647e-12
-1.16539e-12
-5.92651e-13
-2.84637e-12
-5.60572e-13
-2.96976e-12
-4.57829e-13
-4.23021e-12
-4.91655e-13
-4.35637e-12
-2.17155e-13
-4.82265e-12
-9.34244e-14
-3.59193e-12
-1.77577e-12
-4.89919e-13
1.85132e-12
-1.60207e-12
3.90751e-12
-2.22796e-12
3.551e-12
-3.00271e-12
4.03961e-12
-2.39145e-12
1.7481e-12
-3.38564e-12
4.36257e-12
-3.1322e-12
2.38292e-12
-3.30212e-12
2.80826e-12
-2.44959e-12
1.02922e-12
-2.17663e-12
1.37528e-12
-1.97184e-12
7.79608e-13
-1.5749e-12
-5.6193e-13
-1.14664e-12
-1.59376e-12
-2.91609e-13
-3.70151e-12
-4.69827e-13
-2.79165e-12
-7.27203e-13
-3.97294e-12
-8.81339e-13
-4.20235e-12
-2.54802e-13
-5.44929e-12
5.56736e-14
-3.90252e-12
-1.72015e-12
-7.80933e-15
1.85903e-12
-1.80129e-12
5.70088e-12
-3.08559e-12
4.83519e-12
-2.59726e-12
3.55115e-12
-9.55496e-13
1.06233e-13
-1.41332e-12
4.82027e-12
-2.34392e-12
3.31341e-12
-2.43816e-12
2.90238e-12
-4.27919e-13
-9.8112e-13
1.02796e-13
8.44461e-13
-9.85551e-13
1.86785e-12
-1.813e-12
2.65418e-13
-7.17976e-13
-2.68889e-12
1.2817e-12
-5.70129e-12
9.61057e-13
-2.47111e-12
-9.16953e-13
-2.09503e-12
-1.28865e-12
-3.83076e-12
1.69649e-13
-6.90769e-12
1.03061e-12
-4.76358e-12
-6.89588e-13
2.71879e-12
-8.59841e-13
-1.46635e-12
9.8859e-12
-6.25665e-12
9.62539e-12
-4.15711e-12
1.45139e-12
5.43156e-12
-9.48256e-12
3.97373e-12
6.27794e-12
-2.44053e-12
9.72755e-12
-2.88664e-12
3.34837e-12
4.81957e-12
-8.68744e-12
7.00755e-12
-1.34358e-12
1.54815e-12
7.32713e-12
-3.47108e-12
5.28455e-12
-2.35624e-13
-5.92444e-12
7.82272e-12
-1.37598e-11
6.08791e-12
-7.36365e-13
-2.04547e-12
6.03826e-12
-4.32139e-12
-1.5549e-12
2.95255e-12
-1.41818e-11
5.52883e-12
-7.33992e-12
4.83919e-12
1.76685e-11
-1.85279e-11
5.27627e-12
2.22702e-11
-1.91741e-11
3.40585e-11
-1.21589e-11
-5.54709e-12
2.28626e-11
-4.44885e-11
2.01712e-11
8.96917e-12
-9.55384e-12
3.94185e-11
-1.3358e-11
7.09716e-12
1.60514e-11
-3.80845e-11
2.5065e-11
-1.03434e-11
6.73847e-12
2.56378e-11
-1.29495e-11
2.49455e-11
-3.97944e-12
-1.48915e-11
2.69186e-11
-4.46347e-11
2.25428e-11
3.59269e-12
-1.19971e-11
4.05227e-11
-1.88979e-11
5.28387e-12
1.07263e-11
-4.37826e-11
2.01419e-11
-1.67497e-11
2.49573e-11
4.8185e-11
-3.6789e-11
2.13187e-11
2.72559e-11
-4.78321e-11
5.72932e-11
-3.26481e-11
-1.08559e-11
6.36432e-11
-7.67652e-11
5.70372e-11
9.26029e-12
-3.20155e-11
7.10443e-11
-3.66354e-11
6.7868e-12
4.49966e-11
-6.58922e-11
6.74465e-11
-1.76933e-11
1.79659e-11
4.11522e-11
-3.75613e-11
4.43094e-11
-2.01638e-11
-1.71448e-11
6.8559e-11
-7.4095e-11
6.27875e-11
5.88921e-12
-4.05576e-11
7.92442e-11
-5.42021e-11
1.11634e-11
3.55016e-11
-7.5264e-11
5.91318e-11
-2.20294e-11
4.63648e-11
7.82109e-12
-1.16588e-12
6.53706e-12
0
-7.80261e-12
1.52361e-12
-2.91988e-12
-1.66952e-12
9.27815e-12
-2.04189e-12
1.21309e-11
-1.07842e-13
-3.9202e-12
2.18467e-12
-2.60829e-12
0
8.83346e-12
-2.39437e-12
1.35462e-11
-9.40038e-13
5.50919e-12
6.20687e-13
-5.07121e-12
8.54225e-13
-6.34483e-13
-1.39534e-12
1.089e-11
-2.56374e-12
1.23362e-11
0
-6.41883e-12
2.85855e-12
-6.38305e-12
0
5.79155e-12
-2.20139e-12
1.13219e-11
-1.66258e-12
1.01901e-12
-1.87064e-13
-1.70227e-14
-6.6462e-13
0
2.17089e-13
0
3.86789e-14
-8.80741e-14
-2.53778e-14
-4.19333e-14
2.62073e-15
-5.50788e-14
1.27484e-12
0
6.7471e-14
0
4.84144e-15
-4.6228e-14
-1.34801e-13
-9.84122e-15
-1.75198e-13
0
1.59174e-13
0
2.25028e-14
-5.95501e-14
-2.86421e-14
-5.09629e-14
-3.31704e-13
-2.47506e-14
1.01235e-12
0
9.20629e-14
0
-1.46088e-14
-4.66195e-14
-4.18906e-13
-2.19752e-14
0
-1.7831e-14
0
-6.20235e-15
8.03065e-18
-9.75961e-15
0
4.91571e-16
-3.72182e-16
-5.12571e-15
-7.76919e-16
1.7851e-14
-5.31826e-16
9.9854e-15
1.07415e-15
1.20231e-14
0
-1.4855e-16
-5.84605e-16
-1.61168e-14
0
-2.31284e-15
0
-8.63883e-15
3.95848e-16
-1.25973e-15
-1.05319e-15
-6.87844e-15
-1.27046e-15
5.04256e-17
-1.07092e-15
1.00295e-14
2.27234e-15
9.10221e-15
-5.66766e-16
6.32338e-16
-1.18002e-15
2.45399e-16
-1.37421e-15
0
1.41875e-17
0
-2.44334e-17
0
3.64641e-16
0
1.68454e-18
-2.42751e-18
7.97301e-19
-2.75886e-20
-5.21976e-16
-2.45283e-18
3.85589e-16
3.08258e-18
1.0719e-17
0
-8.98814e-18
0
-2.3639e-16
0
-6.5909e-17
0
2.93492e-16
0
2.05143e-18
-2.27932e-17
-1.09694e-17
-8.64362e-18
-1.0279e-15
-2.2356e-17
5.49226e-16
7.94454e-18
4.31105e-18
-1.31442e-18
-4.78825e-18
-9.01286e-18
-2.44345e-16
0
0
1.31873e-19
0
2.98832e-18
0
1.47484e-18
0
2.50266e-20
-1.8635e-21
-2.56222e-21
-9.38329e-24
-2.45539e-18
-3.34749e-24
6.28014e-19
-9.38461e-22
5.65368e-19
0
-1.91115e-19
0
-3.26491e-18
0
4.36486e-18
0
4.41511e-18
0
4.36125e-18
-1.0176e-19
-1.91216e-18
-1.50425e-20
-6.51987e-18
-9.14723e-23
8.85868e-19
1.96097e-21
3.94685e-20
-1.75315e-23
-4.03038e-19
-7.19165e-21
-2.66168e-18
0
0
2.76463e-21
0
2.56049e-20
0
1.87303e-21
-4.91637e-23
9.35529e-24
-3.10216e-25
1.6725e-27
-3.67945e-26
-3.89122e-24
-4.16373e-26
-9.40897e-22
-1.35373e-24
-1.49433e-21
0
-2.19994e-21
0
5.88054e-21
0
9.36656e-20
0
3.31982e-20
0
3.8308e-22
0
-8.91699e-24
-1.12415e-22
-2.32719e-21
-2.79214e-22
-1.91321e-23
-3.3208e-22
-7.02735e-22
-5.81232e-23
-1.77146e-21
0
-8.74562e-21
0
0
4.9714e-24
0
4.91851e-23
-6.82348e-26
1.95204e-26
-1.27224e-27
1.11839e-26
-2.00346e-25
3.83178e-28
-3.3111e-26
-1.07523e-26
-2.90755e-25
-1.31097e-23
-7.98251e-26
-1.05241e-22
8.36812e-25
-4.64978e-23
8.98112e-24
6.92584e-23
3.91779e-24
8.851e-22
0
2.67516e-22
1.28022e-23
2.83426e-22
1.10177e-22
1.03679e-23
-2.65331e-24
-9.29004e-24
-2.91817e-24
-9.10777e-23
-9.77747e-25
-4.93059e-24
-5.55704e-25
-6.69502e-24
2.53519e-25
-1.92838e-23
4.29065e-26
0
1.50378e-27
-1.1677e-29
1.40973e-26
-1.1987e-27
8.64098e-28
-9.96531e-28
4.92077e-26
-7.85038e-28
-3.37103e-27
-5.96659e-28
-2.65706e-26
-5.2834e-28
-3.20277e-25
-9.59099e-28
-1.95273e-24
6.6901e-27
-4.80458e-25
1.94991e-25
5.90615e-25
5.87892e-25
8.41697e-24
1.50735e-24
8.47103e-24
1.86085e-24
1.11067e-23
1.18768e-24
6.34889e-25
3.38219e-26
-4.69853e-25
-3.19535e-26
-2.75888e-24
-1.0599e-26
-7.9461e-25
1.07124e-26
-2.75354e-26
3.67981e-26
-3.13129e-26
5.21807e-27
2.36196e-28
6.86039e-30
-8.23053e-30
4.72192e-28
-3.33111e-29
2.27234e-28
-1.96576e-29
7.29061e-29
-1.30508e-29
-9.91853e-30
-9.39049e-30
-1.01244e-28
-8.30438e-30
-7.6299e-28
-8.7636e-30
-1.29246e-26
1.15669e-29
-2.21705e-26
3.29056e-27
6.84973e-26
7.04007e-26
3.12635e-25
8.62935e-26
4.28326e-25
1.32056e-25
2.12642e-25
3.42353e-26
1.04132e-26
4.68362e-27
-6.41946e-27
3.62063e-28
-4.04827e-26
1.04942e-28
-2.97887e-26
5.99969e-28
-7.27285e-27
9.93939e-28
-1.09874e-28
7.79965e-28
2.01279e-29
5.87078e-31
1.83584e-30
4.28734e-31
1.49466e-31
-3.88984e-32
-2.28866e-31
-7.95632e-31
-2.33509e-29
-1.84375e-28
1.55413e-27
6.03214e-27
7.69283e-27
2.15294e-27
3.72626e-28
-4.99815e-28
-8.66782e-28
-3.95664e-28
-9.546e-29
-2.97178e-29
)
;

boundaryField
{
    top
    {
        type            calculated;
        value           nonuniform List<scalar> 
20
(
0
0
0
0
0
0
0
2.84037e-30
9.17412e-28
1.25519e-26
3.18555e-26
3.46304e-26
1.31838e-26
3.36366e-27
1.192e-27
6.27408e-28
4.74992e-28
1.74005e-28
3.55179e-29
0
)
;
    }
    left
    {
        type            calculated;
        value           uniform 0;
    }
    right
    {
        type            calculated;
        value           uniform 0;
    }
    bottom
    {
        type            calculated;
        value           nonuniform List<scalar> 
20
(
0
0
0
0
0
0
0
1.97214e-31
0
-3.94428e-31
0
0
-1.97214e-31
0
0
0
0
0
0
0
)
;
    }
    front
    {
        type            empty;
        value           nonuniform List<scalar> 0();
    }
    back
    {
        type            empty;
        value           nonuniform List<scalar> 0();
    }
    frontAndBack
    {
        type            empty;
        value           nonuniform List<scalar> 0();
    }
}


// ************************************************************************* //
