/*--------------------------------*- C++ -*----------------------------------*\
  =========                 |
  \\      /  F ield         | OpenFOAM: The Open Source CFD Toolbox
   \\    /   O peration     | Website:  https://openfoam.org
    \\  /    A nd           | Version:  10
     \\/     M anipulation  |
\*---------------------------------------------------------------------------*/
FoamFile
{
    format      ascii;
    class       volScalarField;
    location    "0.04";
    object      p;
}
// * * * * * * * * * * * * * * * * * * * * * * * * * * * * * * * * * * * * * //

dimensions      [1 -1 -2 0 0 0 0];

internalField   nonuniform List<scalar> 
800
(
14.3362
14.3371
14.3375
14.3357
14.3317
14.3259
14.3198
14.3139
14.3093
14.3069
14.3069
14.3093
14.3136
14.3191
14.3254
14.3312
14.335
14.3363
14.3354
14.3361
13.8429
13.8447
13.8452
13.8438
13.8403
13.8353
13.8304
13.8253
13.8216
13.8196
13.8196
13.8217
13.8253
13.8303
13.8349
13.8399
13.8425
13.8442
13.8432
13.8436
13.3516
13.3541
13.3547
13.3532
13.35
13.3458
13.3416
13.3368
13.3335
13.3316
13.3315
13.3332
13.3364
13.3405
13.3458
13.349
13.352
13.3534
13.3524
13.3524
12.8621
12.8655
12.866
12.8646
12.8611
12.8567
12.8524
12.8477
12.8448
12.8431
12.843
12.8445
12.8473
12.8511
12.8573
12.8598
12.8632
12.8646
12.8635
12.8631
12.3757
12.3786
12.3791
12.3777
12.3739
12.3691
12.3657
12.36
12.3568
12.3552
12.3551
12.3565
12.3593
12.3639
12.3689
12.3728
12.3764
12.378
12.377
12.3763
11.8927
11.8965
11.8955
11.8937
11.8891
11.884
11.8796
11.8741
11.8711
11.8693
11.869
11.8706
11.8732
11.879
11.8831
11.8878
11.8922
11.8942
11.8932
11.8923
11.4126
11.4157
11.4147
11.4124
11.4074
11.4017
11.3968
11.3909
11.3889
11.3868
11.3869
11.3884
11.3906
11.3957
11.4008
11.406
11.4111
11.4135
11.4125
11.4116
10.9357
10.9376
10.9374
10.9344
10.9294
10.923
10.9181
10.9126
10.9106
10.9088
10.9086
10.9105
10.9128
10.9169
10.9218
10.9283
10.9332
10.9361
10.9349
10.9342
10.4614
10.4642
10.4635
10.4598
10.4542
10.4494
10.4432
10.44
10.4372
10.4359
10.4356
10.4367
10.4386
10.4427
10.4481
10.4537
10.4587
10.462
10.4608
10.4601
9.99155
9.99353
9.99249
9.98869
9.98605
9.97888
9.97485
9.97131
9.96848
9.968
9.96781
9.96787
9.97033
9.97369
9.97747
9.98294
9.98616
9.98813
9.98996
9.98858
9.52293
9.52333
9.5227
9.52132
9.51813
9.5124
9.5091
9.50644
9.50445
9.50371
9.50331
9.50409
9.50549
9.50771
9.51033
9.51567
9.51866
9.52012
9.52171
9.51957
9.05675
9.05607
9.05539
9.05378
9.05125
9.04842
9.04566
9.04419
9.04334
9.04316
9.04289
9.04253
9.04295
9.04377
9.04623
9.04819
9.0508
9.05273
9.05253
9.05364
8.59071
8.58931
8.58877
8.58798
8.58698
8.58547
8.58555
8.58364
8.58361
8.58399
8.58372
8.58262
8.58235
8.58311
8.58352
8.5834
8.58414
8.58594
8.5848
8.58703
8.12387
8.1218
8.12031
8.11972
8.12144
8.12236
8.1232
8.12401
8.12326
8.12425
8.12385
8.12244
8.12216
8.12039
8.12035
8.11651
8.11658
8.11733
8.11662
8.11869
7.65512
7.65229
7.65093
7.65089
7.65215
7.65759
7.65755
7.66056
7.66079
7.66122
7.66099
7.66008
7.6594
7.65538
7.6536
7.64805
7.64649
7.64463
7.64598
7.64818
7.18381
7.18037
7.17864
7.17905
7.18074
7.18558
7.18867
7.19229
7.19415
7.19525
7.19501
7.19338
7.1906
7.18659
7.18127
7.17604
7.17338
7.17168
7.17251
7.17551
6.70967
6.70585
6.70375
6.70363
6.70544
6.7093
6.7145
6.71783
6.72112
6.72236
6.72205
6.71998
6.71596
6.71079
6.70506
6.70009
6.69715
6.69589
6.69706
6.70018
6.23284
6.22884
6.2262
6.22532
6.22624
6.22897
6.23264
6.23658
6.23977
6.24123
6.24083
6.23853
6.23442
6.22948
6.22456
6.22054
6.21825
6.21757
6.219
6.22209
5.75375
5.74965
5.74639
5.7445
5.74399
5.74499
5.74694
5.74938
5.7516
5.75262
5.75217
5.75028
5.74722
5.74378
5.74061
5.73828
5.73716
5.73724
5.73893
5.7419
5.27311
5.26892
5.26492
5.26173
5.25946
5.25823
5.258
5.25833
5.25878
5.25886
5.25837
5.25738
5.25614
5.25509
5.25443
5.2543
5.25465
5.25559
5.25751
5.26024
4.79173
4.78734
4.7824
4.77763
4.7734
4.76988
4.76715
4.76496
4.76329
4.76213
4.76155
4.76169
4.76272
4.7647
4.76718
4.76968
4.77165
4.77343
4.77548
4.77792
4.31044
4.30572
4.2995
4.29266
4.28621
4.28036
4.27515
4.27018
4.26604
4.26332
4.26253
4.26388
4.26754
4.27335
4.27988
4.28566
4.28927
4.29157
4.29341
4.29551
3.83012
3.82499
3.81692
3.80703
3.79798
3.78996
3.78248
3.7743
3.76696
3.76212
3.76095
3.76351
3.77021
3.78125
3.79351
3.80406
3.80882
3.81095
3.81179
3.81359
3.35172
3.34674
3.33577
3.3205
3.30816
3.29892
3.29012
3.27765
3.26533
3.25728
3.25567
3.25908
3.26959
3.28767
3.30947
3.32839
3.33202
3.33183
3.33003
3.33215
2.87539
2.87353
2.85855
2.83101
2.81428
2.80728
2.80089
2.78097
2.75939
2.74617
2.74528
2.74751
2.76219
2.79015
2.83038
2.86408
2.86442
2.85217
2.84703
2.85328
2.39909
2.41443
2.39361
2.33226
2.31096
2.31821
2.32743
2.28952
2.24866
2.2287
2.24856
2.25686
2.24559
2.27992
2.36153
2.43295
2.41233
2.36231
2.35416
2.38271
1.88985
1.99635
1.96452
1.78257
1.72388
1.8297
1.91472
1.79808
1.6441
1.65948
1.79274
1.7866
1.64375
1.66904
1.90506
2.0891
1.99202
1.78913
1.79796
1.95656
1.20296
1.88725
2.0906
1.1477
0.625503
1.42079
2.23609
1.45307
0.610303
0.905669
1.77512
1.7228
0.859376
0.606471
1.54548
2.36794
1.69572
0.792412
1.05199
1.9688
-0.880013
2.41125
3.50944
-0.286314
-2.68025
0.96231
4.20288
1.1876
-2.24394
-0.735408
2.6413
2.51794
-0.780897
-2.31219
1.2001
4.66
1.67868
-2.02748
-0.525828
3.13636
-4.78
4.74464
8.89999
-1.77412
-9.77748
1.23706
11.2821
1.3847
-8.41583
-2.75938
6.44906
6.01936
-3.06768
-8.79282
1.25892
12.0897
2.3949
-8.5478
-3.11718
7.27226
-0.496234
0.714528
1.09341
-0.234961
-1.239
0.16624
1.45091
0.279165
-1.11768
-0.279291
1.0838
0.826766
-0.485701
-1.27932
0.270794
1.86668
0.441297
-1.34023
-0.466597
1.143
0.06341
0.0218891
-0.00407189
0.0458715
0.0896083
0.0459209
-0.0194848
0.033637
0.0581377
0.00401111
-0.0372008
-0.0289403
0.00747662
0.0648117
0.0360904
-0.0309754
0.0248983
0.0477255
-0.0117127
-0.053416
0.048422
0.0128009
0.0184081
0.0335838
0.0514006
0.0590057
0.00172298
0.0119681
0.0363385
-0.000926836
-0.0163784
0.0131753
-0.0165145
0.0428319
0.0303217
-0.026104
0.00849782
0.0164863
-0.0258236
0.00656414
0.0303949
0.0149288
0.0151409
0.015599
0.0250348
0.00666828
0.00402641
0.00563818
0.0189466
0.0168012
0.00288284
0.00599559
0.00532159
0.0125473
-0.00886386
-0.0145925
-0.0102171
0.00390336
0.00588847
0.00731415
0.0198335
0.0150235
0.0130607
0.0146334
0.0166448
0.00912126
0.00575543
0.0077379
0.0127712
0.0110117
0.00524662
0.00426554
0.00561837
0.00612586
-0.00276359
-0.00751846
-0.00466963
0.00219584
0.00309524
0.00257131
0.0136593
0.0121887
0.0114341
0.0113173
0.0111626
0.00811392
0.00660505
0.00691124
0.00836088
0.00763828
0.00529502
0.00425378
0.00377347
0.00289371
-0.000991848
-0.003063
-0.00237322
0.000169993
0.00108949
0.00143906
0.00979075
0.00901801
0.00864914
0.00851236
0.00817514
0.00652081
0.00552343
0.0055169
0.0061219
0.00553543
0.00401289
0.00319395
0.00274485
0.00193746
-0.000176309
-0.00143883
-0.00119638
4.36405e-05
0.000469607
0.000400575
0.00660635
0.00624806
0.00604692
0.00592999
0.00562978
0.0047497
0.00412243
0.00398798
0.00409944
0.00367915
0.00283733
0.00227323
0.00191115
0.00132954
0.000201142
-0.000543027
-0.00049823
2.77401e-05
0.00016843
1.68153e-05
0.00386324
0.00371702
0.00361762
0.00352309
0.00332215
0.00289634
0.00255771
0.00235616
0.00226456
0.00200791
0.00161088
0.0013325
0.00114098
0.000832861
0.000304881
-8.7397e-05
-0.000134874
1.65908e-05
2.09372e-05
-0.000114248
0.00128782
0.00124745
0.00121176
0.00117241
0.00110154
0.000980836
0.000898603
0.000778616
0.000667303
0.000553882
0.000447368
0.000405796
0.000402802
0.000354657
0.000223237
9.09104e-05
1.12636e-05
-1.54455e-05
-7.08326e-05
-0.00015126
)
;

boundaryField
{
    top
    {
        type            calculated;
        value           nonuniform List<scalar> 
20
(
-1.69039e-06
-6.54902e-06
-1.128e-05
-1.53871e-05
-1.55683e-05
-1.06905e-05
-3.75418e-06
-9.09112e-08
0
0
0
0
0
0
0
0
0
0
0
0
)
;
    }
    left
    {
        type            calculated;
        value           nonuniform List<scalar> 
40
(
14.3362
13.8429
13.3516
12.8621
12.3757
11.8927
11.4126
10.9357
10.4614
9.99155
9.52293
9.05675
8.59071
8.12387
7.65512
7.18381
6.70967
6.23284
5.75375
5.27311
4.79173
4.31044
3.83012
3.35172
2.87539
2.39909
1.88985
1.20296
-0.880013
-4.78
-0.496234
0.06341
0.048422
0.0303949
0.0198335
0.0136593
0.00979075
0.00660635
0.00386324
0.00128782
)
;
    }
    right
    {
        type            calculated;
        value           nonuniform List<scalar> 
40
(
14.3361
13.8436
13.3524
12.8631
12.3763
11.8923
11.4116
10.9342
10.4601
9.98858
9.51957
9.05364
8.58703
8.11869
7.64818
7.17551
6.70018
6.22209
5.7419
5.26024
4.77792
4.29551
3.81359
3.33215
2.85328
2.38271
1.95656
1.9688
3.13636
7.27226
1.143
-0.053416
0.00656414
0.00731415
0.00257131
0.00143906
0.000400575
1.68153e-05
-0.000114248
-0.00015126
)
;
    }
    bottom
    {
        type            calculated;
        value           nonuniform List<scalar> 
20
(
14.5815
14.5824
14.5828
14.5809
14.5769
14.5711
14.565
14.559
14.5544
14.5519
14.5519
14.5543
14.5587
14.5642
14.5706
14.5764
14.5803
14.5816
14.5807
14.5813
)
;
    }
    front
    {
        type            empty;
    }
    back
    {
        type            empty;
    }
    frontAndBack
    {
        type            empty;
    }
}


// ************************************************************************* //
