/*--------------------------------*- C++ -*----------------------------------*\
  =========                 |
  \\      /  F ield         | OpenFOAM: The Open Source CFD Toolbox
   \\    /   O peration     | Website:  https://openfoam.org
    \\  /    A nd           | Version:  10
     \\/     M anipulation  |
\*---------------------------------------------------------------------------*/
FoamFile
{
    format      ascii;
    class       volScalarField;
    location    "0.04";
    object      p_rgh;
}
// * * * * * * * * * * * * * * * * * * * * * * * * * * * * * * * * * * * * * //

dimensions      [1 -1 -2 0 0 0 0];

internalField   nonuniform List<scalar> 
800
(
14.5815
14.5824
14.5828
14.581
14.5769
14.5712
14.5651
14.5592
14.5546
14.5521
14.5522
14.5545
14.5589
14.5643
14.5707
14.5765
14.5803
14.5816
14.5807
14.5813
14.5787
14.5804
14.581
14.5795
14.576
14.5711
14.5661
14.561
14.5574
14.5553
14.5553
14.5574
14.561
14.566
14.5707
14.5757
14.5782
14.58
14.5789
14.5793
14.5779
14.5804
14.581
14.5795
14.5763
14.572
14.5678
14.5631
14.5597
14.5579
14.5577
14.5594
14.5626
14.5668
14.5721
14.5752
14.5782
14.5796
14.5786
14.5786
14.5788
14.5822
14.5828
14.5813
14.5778
14.5734
14.5691
14.5644
14.5615
14.5599
14.5598
14.5612
14.5641
14.5678
14.574
14.5765
14.5799
14.5813
14.5802
14.5798
14.583
14.5858
14.5864
14.5849
14.5812
14.5763
14.5729
14.5673
14.5641
14.5625
14.5623
14.5638
14.5665
14.5711
14.5761
14.58
14.5836
14.5853
14.5843
14.5835
14.5904
14.5943
14.5932
14.5914
14.5869
14.5817
14.5774
14.5719
14.5688
14.567
14.5668
14.5684
14.5709
14.5767
14.5809
14.5855
14.5899
14.592
14.591
14.59
14.6008
14.6039
14.6029
14.6006
14.5957
14.5899
14.585
14.5791
14.5772
14.575
14.5751
14.5767
14.5788
14.584
14.5891
14.5942
14.5994
14.6017
14.6007
14.5998
14.6144
14.6163
14.6162
14.6131
14.6081
14.6018
14.5968
14.5913
14.5894
14.5875
14.5873
14.5892
14.5916
14.5957
14.6005
14.607
14.6119
14.6148
14.6136
14.613
14.6306
14.6334
14.6327
14.629
14.6234
14.6186
14.6124
14.6092
14.6064
14.6051
14.6049
14.606
14.6078
14.6119
14.6173
14.6229
14.6279
14.6312
14.63
14.6293
14.6513
14.6532
14.6522
14.6484
14.6458
14.6386
14.6346
14.631
14.6282
14.6277
14.6275
14.6276
14.63
14.6334
14.6372
14.6427
14.6459
14.6479
14.6497
14.6483
14.6732
14.6736
14.6729
14.6715
14.6684
14.6626
14.6593
14.6566
14.6547
14.6539
14.6535
14.6543
14.6557
14.6579
14.6605
14.6659
14.6689
14.6704
14.6719
14.6698
14.6975
14.6968
14.6961
14.6945
14.692
14.6891
14.6864
14.6849
14.684
14.6839
14.6836
14.6832
14.6837
14.6845
14.6869
14.6889
14.6915
14.6934
14.6932
14.6944
14.7219
14.7205
14.72
14.7192
14.7182
14.7167
14.7168
14.7149
14.7148
14.7152
14.7149
14.7138
14.7136
14.7143
14.7147
14.7146
14.7154
14.7172
14.716
14.7183
14.7456
14.7435
14.742
14.7414
14.7431
14.7441
14.7449
14.7457
14.745
14.746
14.7456
14.7442
14.7439
14.7421
14.7421
14.7382
14.7383
14.739
14.7383
14.7404
14.7673
14.7645
14.7632
14.7631
14.7644
14.7698
14.7698
14.7728
14.773
14.7734
14.7732
14.7723
14.7716
14.7676
14.7658
14.7603
14.7587
14.7569
14.7582
14.7604
14.7865
14.7831
14.7814
14.7818
14.7835
14.7883
14.7914
14.795
14.7969
14.798
14.7977
14.7961
14.7933
14.7893
14.784
14.7788
14.7761
14.7744
14.7752
14.7783
14.8029
14.7991
14.797
14.7969
14.7987
14.8025
14.8077
14.8111
14.8143
14.8156
14.8153
14.8132
14.8092
14.804
14.7983
14.7933
14.7904
14.7891
14.7903
14.7934
14.8166
14.8126
14.8099
14.8091
14.81
14.8127
14.8164
14.8203
14.8235
14.825
14.8246
14.8223
14.8182
14.8132
14.8083
14.8043
14.802
14.8013
14.8027
14.8058
14.828
14.8239
14.8206
14.8187
14.8182
14.8192
14.8212
14.8236
14.8258
14.8269
14.8264
14.8245
14.8215
14.818
14.8148
14.8125
14.8114
14.8115
14.8132
14.8161
14.8379
14.8337
14.8297
14.8265
14.8242
14.823
14.8227
14.8231
14.8235
14.8236
14.8231
14.8221
14.8209
14.8198
14.8192
14.819
14.8194
14.8203
14.8222
14.825
14.847
14.8426
14.8376
14.8329
14.8286
14.8251
14.8224
14.8202
14.8185
14.8174
14.8168
14.8169
14.818
14.8199
14.8224
14.8249
14.8269
14.8287
14.8307
14.8332
14.8562
14.8515
14.8452
14.8384
14.832
14.8261
14.8209
14.8159
14.8118
14.8091
14.8083
14.8096
14.8133
14.8191
14.8256
14.8314
14.835
14.8373
14.8392
14.8413
14.8664
14.8612
14.8532
14.8433
14.8342
14.8262
14.8187
14.8106
14.8032
14.7984
14.7972
14.7998
14.8065
14.8175
14.8298
14.8403
14.8451
14.8472
14.848
14.8498
14.8785
14.8735
14.8625
14.8473
14.8349
14.8257
14.8169
14.8044
14.7921
14.784
14.7824
14.7858
14.7963
14.8144
14.8362
14.8551
14.8588
14.8586
14.8568
14.8589
14.8926
14.8908
14.8758
14.8483
14.8315
14.8245
14.8181
14.7982
14.7766
14.7634
14.7625
14.7648
14.7794
14.8074
14.8476
14.8813
14.8817
14.8694
14.8643
14.8705
14.9068
14.9222
14.9014
14.84
14.8187
14.826
14.8352
14.7973
14.7564
14.7364
14.7563
14.7646
14.7533
14.7877
14.8693
14.9407
14.9201
14.87
14.8619
14.8905
14.8881
14.9946
14.9628
14.7808
14.7221
14.8279
14.913
14.7963
14.6423
14.6577
14.791
14.7848
14.642
14.6673
14.9033
15.0873
14.9903
14.7874
14.7962
14.9548
14.6917
15.376
15.5793
14.6364
14.1142
14.9095
15.7248
14.9418
14.099
14.3944
15.2639
15.2115
14.3481
14.0952
15.0341
15.8567
15.1844
14.2811
14.5407
15.4575
13.0992
16.3905
17.4887
13.6928
11.2989
14.9415
18.1821
15.1668
11.7353
13.2438
16.6205
16.4972
13.1983
11.667
15.1793
18.6392
15.6579
11.9517
13.4534
17.1156
7.7778
17.3949
21.6057
10.8559
2.76699
13.8746
23.9996
14.0007
4.09275
9.76743
19.0377
18.6197
9.47551
3.71342
13.8165
24.7823
14.9651
3.95985
9.39797
19.8695
1.39885
2.70415
3.06165
1.68359
0.493722
2.11468
3.4292
2.21742
0.687823
1.67355
3.10955
2.82879
1.46632
0.552571
2.28362
3.96737
2.48622
0.54832
1.56382
3.25722
0.0798417
0.0425851
0.0147274
0.0663721
0.105497
0.0668298
0.0004584
0.0577442
0.0740346
0.0203808
-0.0175999
-0.0109692
0.0263125
0.0807396
0.0578985
-0.0087126
0.0481494
0.0636898
0.0053452
-0.0351191
0.06532
0.0318503
0.0348286
0.0544872
0.0676343
0.0804405
0.018139
0.0315043
0.0525352
0.0159339
0.000890409
0.0292566
0.00274976
0.0590432
0.0511673
-0.00987888
0.0284212
0.0327384
-0.00829076
0.0227548
0.0468671
0.0313631
0.0315768
0.0320308
0.0414665
0.0231
0.0204595
0.0220725
0.0353926
0.0332601
0.0193391
0.022429
0.0217569
0.028979
0.00756992
0.00184225
0.00621539
0.0203388
0.0223235
0.0237474
0.0367561
0.0319481
0.029983
0.0315556
0.033567
0.0260435
0.0226777
0.0246611
0.0296939
0.0279345
0.0221713
0.0211879
0.0225442
0.0230481
0.0141607
0.00940379
0.0122533
0.0191181
0.0200181
0.0194936
0.0310721
0.0296015
0.0288468
0.0287301
0.0285753
0.0255267
0.0240178
0.024324
0.0257736
0.025051
0.0227078
0.0216665
0.0211862
0.0203065
0.0164209
0.0143498
0.0150395
0.0175827
0.0185022
0.0188518
0.027694
0.0269213
0.0265524
0.0264156
0.0260784
0.0244241
0.0234267
0.0234202
0.0240252
0.0234387
0.0219161
0.0210972
0.0206481
0.0198407
0.0177269
0.0164644
0.0167069
0.0179469
0.0183729
0.0183038
0.0250001
0.0246418
0.0244407
0.0243237
0.0240235
0.0231434
0.0225162
0.0223817
0.0224932
0.0220729
0.0212311
0.020667
0.0203049
0.0197233
0.0185949
0.0178507
0.0178955
0.0184215
0.0185622
0.0184106
0.0227475
0.0226013
0.0225019
0.0224073
0.0222064
0.0217806
0.021442
0.0212404
0.0211488
0.0208922
0.0204951
0.0202167
0.0200252
0.0197171
0.0191891
0.0187969
0.0187494
0.0189008
0.0189052
0.01877
0.0206626
0.0206222
0.0205865
0.0205472
0.0204763
0.0203556
0.0202734
0.0201534
0.0200421
0.0199286
0.0198221
0.0197805
0.0197776
0.0197294
0.019598
0.0194657
0.019386
0.0193593
0.0193039
0.0192235
)
;

boundaryField
{
    top
    {
        type            prghTotalPressure;
        rho             rho;
        psi             none;
        gamma           1;
        p0              uniform 0;
        value           nonuniform List<scalar> 
20
(
0.0196183
0.0196135
0.0196087
0.0196046
0.0196044
0.0196093
0.0196162
0.0196199
0.01962
0.01962
0.01962
0.01962
0.01962
0.01962
0.01962
0.01962
0.01962
0.01962
0.01962
0.01962
)
;
        rho             rho;
    }
    left
    {
        type            fixedFluxPressure;
        gradient        uniform 0;
        value           nonuniform List<scalar> 
40
(
14.5815
14.5787
14.5779
14.5788
14.583
14.5904
14.6008
14.6144
14.6306
14.6513
14.6732
14.6975
14.7219
14.7456
14.7673
14.7865
14.8029
14.8166
14.828
14.8379
14.847
14.8562
14.8664
14.8785
14.8926
14.9068
14.8881
14.6917
13.0992
7.7778
1.39885
0.0798417
0.06532
0.0468671
0.0367561
0.0310721
0.027694
0.0250001
0.0227475
0.0206626
)
;
    }
    right
    {
        type            fixedFluxPressure;
        gradient        uniform 0;
        value           nonuniform List<scalar> 
40
(
14.5813
14.5793
14.5786
14.5798
14.5835
14.59
14.5998
14.613
14.6293
14.6483
14.6698
14.6944
14.7183
14.7404
14.7604
14.7783
14.7934
14.8058
14.8161
14.825
14.8332
14.8413
14.8498
14.8589
14.8705
14.8905
14.9548
15.4575
17.1156
19.8695
3.25722
-0.0351191
0.0227548
0.0237474
0.0194936
0.0188518
0.0183038
0.0184106
0.01877
0.0192235
)
;
    }
    bottom
    {
        type            fixedFluxPressure;
        gradient        nonuniform List<scalar> 
20
(
-0.0545111
-0.122977
-0.304586
-0.68788
-1.39029
-2.51136
-4.05272
-5.85343
-7.54268
-8.59368
-8.59092
-7.53496
-5.84257
-4.04214
-2.50372
-1.38614
-0.686177
-0.304006
-0.122815
-0.054454
)
;
        value           nonuniform List<scalar> 
20
(
14.5815
14.5824
14.5828
14.5809
14.5769
14.5711
14.565
14.559
14.5544
14.5519
14.5519
14.5543
14.5587
14.5642
14.5706
14.5764
14.5803
14.5816
14.5807
14.5813
)
;
    }
    front
    {
        type            empty;
    }
    back
    {
        type            empty;
    }
    frontAndBack
    {
        type            empty;
    }
}


// ************************************************************************* //
