/*--------------------------------*- C++ -*----------------------------------*\
  =========                 |
  \\      /  F ield         | OpenFOAM: The Open Source CFD Toolbox
   \\    /   O peration     | Website:  https://openfoam.org
    \\  /    A nd           | Version:  10
     \\/     M anipulation  |
\*---------------------------------------------------------------------------*/
FoamFile
{
    format      ascii;
    class       surfaceScalarField;
    location    "0.04";
    object      phi;
}
// * * * * * * * * * * * * * * * * * * * * * * * * * * * * * * * * * * * * * //

dimensions      [0 3 -1 0 0 0 0];

internalField   nonuniform List<scalar> 
1540
(
8.63979e-14
-8.64927e-14
4.1334e-13
-3.2705e-13
8.92131e-13
-4.78905e-13
1.36877e-12
-4.76751e-13
1.70738e-12
-3.38726e-13
1.81621e-12
-1.08946e-13
1.64924e-12
1.66865e-13
1.2428e-12
4.06322e-13
6.40322e-13
6.02366e-13
-5.96484e-14
6.99858e-13
-7.48657e-13
6.88895e-13
-1.33688e-12
5.88112e-13
-1.73211e-12
3.95117e-13
-1.89293e-12
1.60707e-13
-1.77841e-12
-1.14634e-13
-1.41993e-12
-3.5859e-13
-9.13873e-13
-5.06167e-13
-4.34449e-13
-4.79543e-13
-8.74952e-14
-3.47077e-13
-8.75573e-14
3.414e-13
-4.28002e-13
1.18012e-12
-1.1659e-12
2.26265e-12
-1.56156e-12
3.28463e-12
-1.49885e-12
3.98791e-12
-1.04214e-12
4.19762e-12
-3.18776e-13
3.78473e-12
5.79628e-13
2.83209e-12
1.35884e-12
1.45961e-12
1.97472e-12
-1.27027e-13
2.28637e-12
-1.70861e-12
2.27035e-12
-3.05747e-12
1.93685e-12
-4.00391e-12
1.34143e-12
-4.38693e-12
5.43597e-13
-4.14279e-12
-3.58894e-13
-3.41284e-12
-1.08866e-12
-2.35181e-12
-1.56732e-12
-1.22038e-12
-1.61111e-12
-3.47737e-13
-1.21984e-12
-4.35358e-13
5.43023e-13
-9.71138e-13
1.7772e-12
-2.4002e-12
3.25733e-12
-3.04182e-12
4.61907e-12
-2.86072e-12
5.52135e-12
-1.94455e-12
5.71894e-12
-5.16494e-13
5.20526e-12
1.09317e-12
3.88057e-12
2.6834e-12
2.01419e-12
3.84097e-12
-1.57861e-13
4.45829e-12
-2.32731e-12
4.43966e-12
-4.18085e-12
3.79027e-12
-5.45485e-12
2.61531e-12
-5.98744e-12
1.07605e-12
-5.72465e-12
-6.21806e-13
-4.77517e-12
-2.03827e-12
-3.35907e-12
-2.98355e-12
-1.81359e-12
-3.15672e-12
-5.57219e-13
-2.47635e-12
-9.9264e-13
7.08659e-13
-1.67991e-12
2.20887e-12
-3.90053e-12
3.96439e-12
-4.79747e-12
5.56041e-12
-4.45687e-12
6.59396e-12
-2.97823e-12
6.8091e-12
-7.31764e-13
6.07289e-12
1.82925e-12
4.52945e-12
4.22671e-12
2.3439e-12
6.02638e-12
-1.92729e-13
6.9948e-12
-2.72775e-12
6.97455e-12
-4.89802e-12
5.96041e-12
-6.40989e-12
4.12705e-12
-7.06093e-12
1.72697e-12
-6.86862e-12
-8.14242e-13
-5.75709e-12
-3.14992e-12
-4.08535e-12
-4.65542e-12
-2.23779e-12
-5.0044e-12
-7.0258e-13
-4.01169e-12
-1.69528e-12
7.93601e-13
-2.47363e-12
2.45532e-12
-5.56237e-12
4.42517e-12
-6.76745e-12
6.18848e-12
-6.22032e-12
7.28543e-12
-4.0753e-12
7.46296e-12
-9.09424e-13
6.63118e-12
2.6609e-12
4.90374e-12
5.95402e-12
2.52536e-12
8.40463e-12
-2.23513e-13
9.74354e-12
-2.97366e-12
9.72457e-12
-5.33297e-12
8.31959e-12
-7.01081e-12
5.80477e-12
-7.79736e-12
2.51338e-12
-7.54193e-12
-1.0698e-12
-6.39267e-12
-4.29932e-12
-4.57088e-12
-6.47734e-12
-2.52025e-12
-7.05516e-12
-7.94862e-13
-5.73721e-12
-2.49021e-12
8.16804e-13
-3.29055e-12
2.59654e-12
-7.34224e-12
4.72056e-12
-8.8916e-12
6.50514e-12
-8.00503e-12
7.59595e-12
-5.16624e-12
7.71152e-12
-1.02513e-12
6.81219e-12
3.5601e-12
5.01386e-12
7.75223e-12
2.56513e-12
1.08532e-11
-2.62127e-13
1.25707e-11
-3.07716e-12
1.25395e-11
-5.49386e-12
1.07362e-11
-7.24472e-12
7.5555e-12
-8.08379e-12
3.35233e-12
-7.87116e-12
-1.28256e-12
-6.71274e-12
-5.45786e-12
-4.82576e-12
-8.36445e-12
-2.68216e-12
-9.19889e-12
-8.56993e-13
-7.5625e-12
-3.34727e-12
8.42223e-13
-4.13289e-12
2.61879e-12
-9.11894e-12
4.6812e-12
-1.09541e-11
6.41862e-12
-9.74258e-12
7.44134e-12
-6.18908e-12
7.50236e-12
-1.08628e-12
6.58725e-12
4.47507e-12
4.82744e-12
9.51191e-12
2.39328e-12
1.32873e-11
-3.1891e-13
1.52827e-11
-3.03072e-12
1.52512e-11
-5.41698e-12
1.31223e-11
-7.12571e-12
9.2641e-12
-7.94216e-12
4.16866e-12
-7.78203e-12
-1.44281e-12
-6.61826e-12
-6.62176e-12
-4.80402e-12
-1.01788e-11
-2.69482e-12
-1.13082e-11
-8.67593e-13
-9.38985e-12
-4.21492e-12
7.93707e-13
-4.92671e-12
2.47271e-12
-1.07981e-11
4.3335e-12
-1.28151e-11
5.90992e-12
-1.13191e-11
6.79927e-12
-7.07856e-12
6.85089e-12
-1.13803e-12
5.98011e-12
5.34572e-12
4.34858e-12
1.11433e-11
2.15312e-12
1.54826e-11
-3.29635e-13
1.77653e-11
-2.79135e-12
1.77127e-11
-5.01467e-12
1.53455e-11
-6.57686e-12
1.08262e-11
-7.35095e-12
4.94262e-12
-7.17013e-12
-1.62376e-12
-6.16514e-12
-7.62688e-12
-4.48204e-12
-1.18621e-11
-2.52174e-12
-1.32687e-11
-8.13164e-13
-1.10986e-11
-5.02815e-12
7.06622e-13
-5.63345e-12
2.10558e-12
-1.21972e-11
3.68425e-12
-1.43939e-11
5.00091e-12
-1.26359e-11
5.78409e-12
-7.86188e-12
5.79614e-12
-1.1502e-12
5.07322e-12
6.06851e-12
3.63666e-12
1.25797e-11
1.75527e-12
1.73639e-11
-3.41644e-13
1.98621e-11
-2.42098e-12
1.97919e-11
-4.25936e-12
1.71837e-11
-5.62174e-12
1.21884e-11
-6.27759e-12
5.59833e-12
-6.16173e-12
-1.73974e-12
-5.2546e-12
-8.53413e-12
-3.83224e-12
-1.32845e-11
-2.15018e-12
-1.49508e-11
-6.882e-13
-1.25607e-11
-5.71641e-12
5.10449e-13
-6.14401e-12
1.50902e-12
-1.31958e-11
2.63502e-12
-1.552e-11
3.58925e-12
-1.35903e-11
4.19617e-12
-8.46892e-12
4.2804e-12
-1.23456e-12
3.73121e-12
6.61757e-12
2.64112e-12
1.36697e-11
1.21453e-12
1.87903e-11
-3.76419e-13
2.14529e-11
-1.9551e-12
2.13705e-11
-3.31292e-12
1.85414e-11
-4.3359e-12
1.32113e-11
-4.73733e-12
5.99964e-12
-4.5633e-12
-1.91389e-12
-3.86475e-12
-9.2328e-12
-2.83101e-12
-1.43184e-11
-1.60778e-12
-1.61742e-11
-5.17603e-13
-1.3651e-11
-6.23408e-12
2.51158e-13
-6.39528e-12
7.34192e-13
-1.3679e-11
1.28694e-12
-1.60729e-11
1.87582e-12
-1.41793e-11
2.31111e-12
-8.90433e-12
2.42082e-12
-1.3444e-12
2.12807e-12
6.91019e-12
1.45879e-12
1.43389e-11
5.71065e-13
1.96779e-11
-4.07175e-13
2.24311e-11
-1.35871e-12
2.23219e-11
-2.19248e-12
1.93751e-11
-2.77246e-12
1.37911e-11
-2.9512e-12
6.17825e-12
-2.68783e-12
-2.17739e-12
-2.19335e-12
-9.7274e-12
-1.52037e-12
-1.49915e-11
-8.77269e-13
-1.68174e-11
-3.67339e-13
-1.4161e-11
-6.60148e-12
-2.6959e-15
-6.39269e-12
-3.91919e-14
-1.36426e-11
-5.86913e-14
-1.60535e-11
4.75153e-14
-1.42856e-11
2.06324e-13
-9.06327e-12
3.2191e-13
-1.46011e-12
2.67336e-13
6.96464e-12
8.2566e-14
1.45235e-11
-1.88471e-13
1.99488e-11
-4.56274e-13
2.26987e-11
-7.00085e-13
2.25656e-11
-9.00295e-13
1.95752e-11
-9.70525e-13
1.38612e-11
-8.96613e-13
6.10422e-12
-6.21012e-13
-2.45311e-12
-3.37591e-13
-1.00109e-11
-1.6497e-13
-1.51643e-11
-3.19911e-14
-1.69505e-11
1.76565e-14
-1.42108e-11
-6.58388e-12
-2.59756e-13
-6.13305e-12
-8.14775e-13
-1.30877e-11
-1.41113e-12
-1.54572e-11
-1.80792e-12
-1.38889e-11
-1.95742e-12
-8.91389e-12
-1.82711e-12
-1.59054e-12
-1.64672e-12
6.78413e-12
-1.33954e-12
1.42162e-11
-9.73265e-13
1.95824e-11
-5.30062e-13
2.22554e-11
-6.85298e-14
2.21039e-11
4.01784e-13
1.91047e-11
8.61595e-13
1.34013e-11
1.25966e-12
5.70604e-12
1.54111e-12
-2.73467e-12
1.52468e-12
-9.99463e-12
1.22902e-12
-1.48687e-11
6.89682e-13
-1.64113e-11
2.5294e-13
-1.37742e-11
-6.331e-12
-4.98443e-13
-5.63471e-12
-1.5186e-12
-1.20677e-11
-2.66581e-12
-1.43102e-11
-3.61839e-12
-1.29365e-11
-4.11279e-12
-8.4196e-12
-4.02186e-12
-1.6816e-12
-3.50295e-12
6.2651e-12
-2.70518e-12
1.34183e-11
-1.70003e-12
1.85772e-11
-6.31696e-13
2.1187e-11
4.86014e-13
2.09861e-11
1.59844e-12
1.79922e-11
2.55065e-12
1.2449e-11
3.27465e-12
4.98193e-12
3.49133e-12
-2.95146e-12
3.17771e-12
-9.68112e-12
2.36461e-12
-1.40557e-11
1.37219e-12
-1.5419e-11
4.61129e-13
-1.28632e-11
-5.86992e-12
-6.83673e-13
-4.95114e-12
-2.0866e-12
-1.06649e-11
-3.71682e-12
-1.268e-11
-5.12888e-12
-1.15245e-11
-5.9399e-12
-7.6087e-12
-6.01708e-12
-1.60453e-12
-5.26696e-12
5.51487e-12
-4.00343e-12
1.21547e-11
-2.45018e-12
1.70238e-11
-7.43006e-13
1.94797e-11
1.00205e-12
1.9241e-11
2.66114e-12
1.6333e-11
4.05128e-12
1.10587e-11
4.9495e-12
4.08359e-12
5.09874e-12
-3.10081e-12
4.50716e-12
-9.08964e-12
3.34709e-12
-1.28958e-11
1.8894e-12
-1.39614e-11
5.98689e-13
-1.15726e-11
-5.27129e-12
-7.9758e-13
-4.15367e-12
-2.46004e-12
-9.00253e-12
-4.39318e-12
-1.0747e-11
-6.11695e-12
-9.8009e-12
-7.20474e-12
-6.52102e-12
-7.42788e-12
-1.3815e-12
-6.63757e-12
4.72445e-12
-5.10759e-12
1.06246e-11
-3.12144e-12
1.50375e-11
-8.77894e-13
1.7236e-11
1.405e-12
1.6958e-11
3.50602e-12
1.42319e-11
5.20355e-12
9.36111e-12
6.14349e-12
3.14355e-12
6.15018e-12
-3.10761e-12
5.32899e-12
-8.26855e-12
3.89506e-12
-1.14619e-11
2.19604e-12
-1.22625e-11
7.06705e-13
-1.00834e-11
-4.56464e-12
-8.34511e-13
-3.31926e-12
-2.59534e-12
-7.24181e-12
-4.66524e-12
-8.67724e-12
-6.54568e-12
-7.92057e-12
-7.83036e-12
-5.23645e-12
-8.20301e-12
-1.00897e-12
-7.52134e-12
4.04268e-12
-5.87936e-12
8.9825e-12
-3.62394e-12
1.2782e-11
-1.0399e-12
1.46519e-11
1.58429e-12
1.43337e-11
3.95312e-12
1.18629e-11
5.74988e-12
7.56424e-12
6.63282e-12
2.2605e-12
6.53595e-12
-3.01084e-12
5.57209e-12
-7.3048e-12
4.02875e-12
-9.91872e-12
2.2537e-12
-1.04876e-11
7.25602e-13
-8.5554e-12
-3.83909e-12
-8.08287e-13
-2.51107e-12
-2.53027e-12
-5.51993e-12
-4.57859e-12
-6.62904e-12
-6.4832e-12
-6.01607e-12
-7.83637e-12
-3.88338e-12
-8.31156e-12
-5.33891e-13
-7.76242e-12
3.49342e-12
-6.21416e-12
7.43414e-12
-3.919e-12
1.04867e-11
-1.23941e-12
1.19722e-11
1.47803e-12
1.16161e-11
3.88295e-12
9.45789e-12
5.61041e-12
5.83668e-12
6.4192e-12
1.4516e-12
6.26223e-12
-2.85397e-12
5.28708e-12
-6.32975e-12
3.78798e-12
-8.41973e-12
2.10311e-12
-8.80279e-12
6.67861e-13
-7.12025e-12
-3.17128e-12
-7.38187e-13
-1.77298e-12
-2.32985e-12
-3.92837e-12
-4.24324e-12
-4.71577e-12
-6.04883e-12
-4.21059e-12
-7.36989e-12
-2.56243e-12
-7.90669e-12
2.79971e-15
-7.49029e-12
3.07691e-12
-6.13143e-12
6.07517e-12
-4.01542e-12
8.37062e-12
-1.4879e-12
9.44454e-12
1.07867e-12
9.04943e-12
3.31674e-12
7.21972e-12
4.89068e-12
4.26264e-12
5.61008e-12
7.32097e-13
5.45842e-12
-2.70242e-12
4.59178e-12
-5.46322e-12
3.27174e-12
-7.09979e-12
1.80389e-12
-7.33505e-12
5.64686e-13
-5.88116e-12
-2.60665e-12
-6.4832e-13
-1.12477e-12
-2.06422e-12
-2.51258e-12
-3.78054e-12
-2.99956e-12
-5.41606e-12
-2.57519e-12
-6.63846e-12
-1.34015e-12
-7.19239e-12
5.56625e-13
-6.91044e-12
2.79485e-12
-5.78962e-12
4.95424e-12
-3.98394e-12
6.56484e-12
-1.78746e-12
7.24795e-12
4.54819e-13
6.80705e-12
2.40434e-12
5.2701e-12
3.77486e-12
2.89201e-12
4.4188e-12
8.80518e-14
4.32812e-12
-2.61184e-12
3.64991e-12
-4.78513e-12
2.59431e-12
-6.04429e-12
1.4207e-12
-6.16154e-12
4.35503e-13
-4.89608e-12
-2.1712e-12
-5.5934e-13
-5.65528e-13
-1.79607e-12
-1.27597e-12
-3.30143e-12
-1.49431e-12
-4.74913e-12
-1.12761e-12
-5.84496e-12
-2.44432e-13
-6.38897e-12
1.10052e-12
-6.22936e-12
2.63513e-12
-5.36513e-12
4.08989e-12
-3.91732e-12
5.11691e-12
-2.12879e-12
5.45931e-12
-2.86459e-13
4.96461e-12
1.3301e-12
3.65342e-12
2.48544e-12
1.73657e-12
3.07259e-12
-4.99212e-13
3.07219e-12
-2.61155e-12
2.61886e-12
-4.3319e-12
1.85883e-12
-5.28438e-12
1.01059e-12
-5.31342e-12
2.9803e-13
-4.18363e-12
-1.87323e-12
-4.86538e-13
-7.90954e-14
-1.57137e-12
-1.9125e-13
-2.88371e-12
-1.82097e-13
-4.16009e-12
1.48654e-13
-5.12432e-12
7.1968e-13
-5.65515e-12
1.63124e-12
-5.59976e-12
2.57962e-12
-4.9774e-12
3.46741e-12
-3.87283e-12
4.01222e-12
-2.48787e-12
4.07423e-12
-1.04285e-12
3.51948e-12
2.53187e-13
2.35727e-12
1.20226e-12
7.87379e-13
1.75608e-12
-1.05314e-12
1.84162e-12
-2.69721e-12
1.61799e-12
-4.10838e-12
1.14147e-12
-4.80797e-12
6.17966e-13
-4.79003e-12
1.64616e-13
-3.7304e-12
-1.70868e-12
-4.38784e-13
3.59581e-13
-1.41465e-12
7.84494e-13
-2.56384e-12
9.66973e-13
-3.70114e-12
1.28582e-12
-4.52476e-12
1.54318e-12
-5.05215e-12
2.1585e-12
-5.07287e-12
2.60022e-12
-4.65748e-12
3.0519e-12
-3.84027e-12
3.1949e-12
-2.81241e-12
3.04625e-12
-1.72476e-12
2.43171e-12
-7.01529e-13
1.33392e-12
6.25706e-14
2.31612e-14
6.03547e-13
-1.59423e-12
7.30306e-13
-2.82408e-12
7.35425e-13
-4.11361e-12
4.86208e-13
-4.55887e-12
2.72744e-13
-4.57669e-12
5.02729e-14
-3.50806e-12
-1.65847e-12
-4.27841e-13
7.87309e-13
-1.33044e-12
1.68697e-12
-2.32964e-12
1.96604e-12
-3.36322e-12
2.31928e-12
-3.99935e-12
2.17919e-12
-4.54637e-12
2.70539e-12
-4.58891e-12
2.64262e-12
-4.3342e-12
2.79707e-12
-3.71996e-12
2.58052e-12
-2.99404e-12
2.32021e-12
-2.22408e-12
1.66162e-12
-1.42251e-12
5.32223e-13
-8.37471e-13
-5.62001e-13
-3.18404e-13
-2.11343e-12
-1.32556e-13
-3.01006e-12
1.53558e-14
-4.26165e-12
-2.06369e-14
-4.52301e-12
-1.98833e-14
-4.57758e-12
-4.4571e-14
-3.4835e-12
-1.7031e-12
-4.48139e-13
1.23533e-12
-1.31879e-12
2.55749e-12
-2.11397e-12
2.76108e-12
-3.08204e-12
3.28721e-12
-3.39248e-12
2.4895e-12
-4.02725e-12
3.34003e-12
-3.96008e-12
2.57532e-12
-3.8205e-12
2.65736e-12
-3.29159e-12
2.05148e-12
-2.82846e-12
1.85694e-12
-2.30034e-12
1.13337e-12
-1.82867e-12
6.04267e-14
-1.40551e-12
-9.85294e-13
-8.50064e-13
-2.669e-12
-7.4808e-13
-3.11217e-12
-4.48833e-13
-4.56103e-12
-3.80911e-13
-4.59106e-12
-1.84779e-13
-4.77384e-12
-1.26671e-13
-3.54175e-12
-1.82984e-12
-5.82104e-13
1.81732e-12
-1.40522e-12
3.38048e-12
-1.8264e-12
3.18212e-12
-2.78287e-12
4.24355e-12
-2.48456e-12
2.19105e-12
-3.36123e-12
4.21657e-12
-2.90096e-12
2.11491e-12
-2.99069e-12
2.74695e-12
-2.32439e-12
1.38504e-12
-2.27181e-12
1.80423e-12
-1.98759e-12
8.49019e-13
-1.49125e-12
-4.36047e-13
-1.3169e-12
-1.15978e-12
-8.5887e-13
-3.12716e-12
-8.91379e-13
-3.07979e-12
-5.46378e-13
-4.90616e-12
-4.41669e-13
-4.6959e-12
-2.03158e-13
-5.01249e-12
-2.02682e-13
-3.54236e-12
-2.03259e-12
-1.00943e-12
2.82664e-12
-1.47168e-12
3.84261e-12
-1.69406e-12
3.40438e-12
-2.06448e-12
4.61383e-12
-1.63203e-12
1.75847e-12
-1.91037e-12
4.49478e-12
-1.46965e-12
1.67407e-12
-1.07522e-12
2.35239e-12
-5.84899e-13
8.94593e-13
-1.05662e-12
2.27582e-12
-8.6533e-13
6.57601e-13
-6.36293e-13
-6.65209e-13
-7.62389e-13
-1.03381e-12
-5.56397e-13
-3.33327e-12
-5.18219e-13
-3.11809e-12
-8.26296e-14
-5.34187e-12
2.51761e-13
-5.03042e-12
-4.2191e-14
-4.71867e-12
-3.09002e-13
-3.27568e-12
-2.34165e-12
-2.95959e-12
5.78613e-12
-2.58124e-12
3.46415e-12
7.20072e-13
1.02967e-13
4.16153e-13
4.91765e-12
-1.0536e-12
3.22813e-12
-1.8361e-12
5.27718e-12
3.35222e-12
-3.51435e-12
4.14326e-12
1.56125e-12
2.17112e-12
2.86663e-12
4.35142e-13
4.0117e-12
1.87338e-12
-7.80737e-13
3.28834e-12
-2.08027e-12
2.10762e-12
1.46807e-13
2.71694e-13
-1.49744e-12
-2.24741e-13
-2.62176e-12
3.03727e-12
-8.60398e-12
2.91767e-12
-4.91092e-12
4.80908e-13
-2.282e-12
-1.53314e-12
-1.26173e-12
-3.87482e-12
-7.62325e-12
1.34093e-11
-4.09159e-12
-6.75595e-14
9.49248e-12
-1.34812e-11
7.65152e-12
6.75856e-12
-5.71576e-12
1.65954e-11
-4.13584e-12
3.69721e-12
1.36894e-11
-2.13396e-11
1.41284e-11
1.12216e-12
3.44926e-12
1.35457e-11
8.2793e-14
7.37812e-12
7.24302e-12
-7.94101e-12
1.25332e-11
-7.37047e-12
1.02148e-11
2.46512e-12
-9.02775e-13
9.62008e-12
-3.84453e-12
3.19948e-13
1.09526e-11
-2.34012e-11
1.01971e-11
-4.15546e-12
-2.02337e-12
9.9384e-12
-7.33578e-12
4.05064e-12
-1.12106e-11
-2.59052e-11
3.93145e-11
-1.46015e-11
-1.13713e-11
3.70892e-11
-6.51718e-11
3.66505e-11
7.19719e-12
-2.44282e-11
7.7674e-11
-2.07136e-11
-1.7357e-14
5.03745e-11
-9.24278e-11
4.45526e-11
6.94407e-12
5.75947e-13
5.75224e-11
-5.8756e-13
8.54161e-12
2.16869e-11
-3.02155e-11
3.55504e-11
-2.1234e-11
3.42289e-11
3.78657e-12
-1.02916e-11
5.41406e-11
-2.20436e-11
1.20719e-11
3.81958e-11
-8.36406e-11
3.43917e-11
-3.51336e-13
-1.01165e-11
5.44466e-11
-2.03152e-11
1.42493e-11
-3.15258e-11
-1.26485e-11
5.1963e-11
1.05708e-11
-3.45907e-11
3.24531e-11
-8.70542e-11
3.9801e-11
-1.50804e-13
-1.72089e-11
1.34684e-10
3.44397e-12
-2.06703e-11
5.44714e-11
-1.43455e-10
6.42598e-11
-2.84446e-12
1.38659e-11
1.07916e-10
1.96862e-11
2.72126e-12
4.38926e-11
-5.4422e-11
4.54042e-11
-2.27456e-11
4.35655e-11
5.62513e-12
-1.14074e-11
1.09113e-10
-6.42051e-12
7.08499e-12
4.25414e-11
-1.32603e-10
5.19425e-11
-9.7525e-12
-9.70138e-12
1.1609e-10
-9.71723e-12
1.42651e-11
-4.12431e-11
3.02087e-11
2.1754e-11
1.52502e-11
-1.96326e-11
-4.00605e-11
-3.17438e-11
-3.76022e-11
-2.60945e-12
3.96932e-11
5.73881e-11
8.86972e-11
-6.96746e-11
3.82021e-12
-5.85787e-11
3.99435e-11
-3.89681e-11
8.82827e-11
5.95767e-11
4.48677e-11
4.61359e-11
-2.78644e-12
-6.76816e-12
-1.62779e-11
-9.25459e-12
-6.08698e-11
5.02167e-11
4.11267e-12
4.41305e-11
6.92573e-11
-5.806e-11
-1.44213e-11
-4.89242e-11
3.35723e-11
-5.77465e-11
8.07966e-11
6.88657e-11
3.41176e-11
6.09437e-11
-7.12577e-12
-5.47801e-11
7.65336e-11
-3.51476e-11
-3.92655e-11
-6.01227e-11
-6.76924e-12
4.19848e-12
-6.69311e-11
6.90988e-12
5.46762e-11
5.35735e-11
-1.16339e-10
3.36517e-11
-3.86574e-11
3.45511e-11
-3.98681e-11
6.97806e-12
8.71491e-11
-4.12925e-11
9.44059e-11
-4.21591e-11
-5.90208e-12
-9.9013e-11
4.75987e-11
-2.58607e-11
-2.29361e-11
-5.36127e-11
7.1882e-11
-5.10746e-12
-1.06566e-10
1.15508e-11
-6.55831e-11
1.69803e-11
-6.31765e-11
3.73536e-11
4.84918e-11
5.09874e-11
4.73094e-11
4.38613e-11
3.22633e-11
4.42698e-11
-6.30782e-12
-6.94895e-13
5.71959e-12
-1.87972e-11
-1.99758e-11
-4.12363e-11
4.86486e-11
-1.39487e-11
5.59182e-12
-7.32825e-11
9.0461e-12
-4.21122e-11
-2.41344e-11
-6.68809e-12
-7.62009e-13
6.37762e-11
1.82206e-11
7.54228e-11
-1.88989e-11
3.12168e-11
2.87504e-12
2.58243e-11
-2.43381e-11
4.27659e-12
4.02523e-11
7.2911e-12
-5.19048e-12
-6.11236e-11
-1.12257e-11
-5.95484e-11
-3.55616e-11
-3.88411e-11
-1.43152e-11
2.72448e-11
-1.22933e-11
4.52869e-11
3.15678e-11
2.18437e-11
2.24257e-11
1.65132e-11
4.63504e-12
1.02789e-11
-1.25633e-11
4.36313e-12
-3.5321e-11
2.42926e-11
-3.38787e-11
3.03975e-12
-5.20301e-11
-1.29136e-11
-2.61594e-11
-2.11249e-11
1.52279e-12
-1.06827e-14
4.26614e-11
1.86105e-11
5.68011e-11
1.05278e-11
3.9299e-11
9.69148e-12
2.66601e-11
9.48115e-12
4.48644e-12
2.41007e-11
-7.32891e-12
2.40465e-12
-3.9428e-11
-2.20791e-11
-3.50651e-11
-3.81463e-11
-2.27743e-11
-2.36169e-11
1.27149e-11
-8.04201e-12
2.97115e-11
2.35256e-11
1.15093e-11
1.09161e-11
1.55317e-11
6.12237e-13
1.57292e-11
-1.27613e-11
9.93201e-12
-2.95242e-11
9.43477e-12
-3.33819e-11
-4.75032e-12
-3.78455e-11
-1.20175e-11
-1.88927e-11
-1.39581e-11
3.46298e-12
-2.17416e-12
3.0877e-11
1.15536e-11
4.30728e-11
1.54587e-11
3.53935e-11
1.79045e-11
2.42139e-11
1.52539e-11
7.13665e-12
1.41776e-11
-6.25308e-12
-1.93743e-12
-2.33134e-11
-1.56276e-11
-2.13754e-11
-2.59233e-11
-1.2479e-11
-2.10515e-11
7.84264e-12
-1.00393e-11
1.8699e-11
1.34862e-11
6.87811e-12
4.03771e-12
1.12222e-11
-3.73224e-12
1.24743e-11
-1.40137e-11
8.03302e-12
-2.50833e-11
3.63654e-12
-2.89857e-11
-6.12205e-12
-2.80872e-11
-1.07038e-11
-1.43112e-11
-1.07721e-11
3.53095e-12
-2.47087e-12
2.25755e-11
7.96382e-12
3.26378e-11
1.31695e-11
3.01875e-11
1.55712e-11
2.18119e-11
1.33417e-11
9.36583e-12
9.16852e-12
-2.08021e-12
-1.95322e-12
-1.2192e-11
-1.12739e-11
-1.20551e-11
-1.75985e-11
-6.15472e-12
-1.46866e-11
4.93042e-12
-6.67867e-12
1.06907e-11
6.80738e-12
3.70237e-12
3.35114e-13
6.94566e-12
-6.97578e-12
7.85056e-12
-1.49188e-11
5.00734e-12
-2.22403e-11
7.99389e-13
-2.4778e-11
-5.33854e-12
-2.19495e-11
-8.32858e-12
-1.13214e-11
-7.64613e-12
2.84826e-12
-2.17811e-12
1.71072e-11
4.7916e-12
2.56679e-11
9.2472e-12
2.57317e-11
1.10639e-11
1.9995e-11
9.57497e-12
1.08545e-11
5.70199e-12
1.79256e-12
-1.4057e-12
-5.08449e-12
-7.54268e-12
-5.91833e-12
-1.09973e-11
-2.70027e-12
-9.03556e-12
2.96841e-12
-3.91829e-12
5.57327e-12
2.88902e-12
1.75714e-12
-1.42215e-12
3.59417e-12
-8.81294e-12
4.1108e-12
-1.54356e-11
2.50319e-12
-2.06328e-11
-2.71223e-13
-2.20037e-11
-3.65403e-12
-1.85669e-11
-5.20666e-12
-9.76893e-12
-4.63324e-12
2.27472e-12
-1.45724e-12
1.39311e-11
2.65709e-12
2.15534e-11
5.63535e-12
2.27533e-11
6.82954e-12
1.88006e-11
5.8717e-12
1.18123e-11
3.14328e-12
4.52087e-12
-1.06494e-12
-8.76383e-13
-4.6901e-12
-2.29329e-12
-6.4353e-12
-9.55186e-13
-5.21134e-12
1.74434e-12
-2.15902e-12
2.52084e-12
7.29977e-13
5.14136e-13
1.1008e-12
1.25353e-12
7.16659e-13
-2.66535e-13
-1.46066e-12
-2.2144e-12
-2.19759e-12
-6.75143e-13
1.57049e-12
3.37534e-12
4.0698e-12
3.36632e-12
1.47904e-12
-1.05178e-12
-3.12034e-12
-4.05744e-12
-3.31551e-12
-1.42694e-12
)
;

boundaryField
{
    top
    {
        type            calculated;
        value           nonuniform List<scalar> 
20
(
-1.93631e-12
-9.39963e-12
-1.55884e-11
-2.0096e-11
-2.10206e-11
-1.73728e-11
-9.01522e-12
2.25787e-12
1.24086e-11
1.93078e-11
2.09484e-11
1.81062e-11
1.25157e-11
6.40812e-12
1.6544e-12
-2.24763e-13
-1.81225e-14
1.00238e-12
6.32243e-13
-6.96962e-13
)
;
    }
    left
    {
        type            calculated;
        value           uniform 0;
    }
    right
    {
        type            calculated;
        value           uniform 0;
    }
    bottom
    {
        type            calculated;
        value           nonuniform List<scalar> 
20
(
0
0
-1.2326e-32
0
-4.93038e-32
0
0
-1.97215e-31
0
-3.9443e-31
3.9443e-31
0
0
0
0
0
0
0
0
0
)
;
    }
    front
    {
        type            empty;
        value           nonuniform List<scalar> 0();
    }
    back
    {
        type            empty;
        value           nonuniform List<scalar> 0();
    }
    frontAndBack
    {
        type            empty;
        value           nonuniform List<scalar> 0();
    }
}


// ************************************************************************* //
