/*--------------------------------*- C++ -*----------------------------------*\
  =========                 |
  \\      /  F ield         | OpenFOAM: The Open Source CFD Toolbox
   \\    /   O peration     | Website:  https://openfoam.org
    \\  /    A nd           | Version:  10
     \\/     M anipulation  |
\*---------------------------------------------------------------------------*/
FoamFile
{
    format      ascii;
    class       volVectorField;
    location    "0.04";
    object      U;
}
// * * * * * * * * * * * * * * * * * * * * * * * * * * * * * * * * * * * * * //

dimensions      [0 1 -1 0 0 0 0];

internalField   nonuniform List<vector> 
800
(
(-7.47784e-07 7.01888e-07 0)
(4.15528e-05 -1.08574e-05 0)
(0.000127993 -1.97774e-05 0)
(0.000229253 -2.08258e-05 0)
(0.000315343 -1.52557e-05 0)
(0.000362883 -5.63346e-06 0)
(0.000357664 6.24827e-06 0)
(0.00029859 1.51531e-05 0)
(0.000194367 2.37201e-05 0)
(6.00908e-05 2.7577e-05 0)
(-8.31777e-05 2.66004e-05 0)
(-0.000214707 2.26887e-05 0)
(-0.000316246 1.44775e-05 0)
(-0.000373781 6.22454e-06 0)
(-0.000377749 -5.23201e-06 0)
(-0.00032753 -1.64046e-05 0)
(-0.000236804 -2.28487e-05 0)
(-0.000132264 -1.84971e-05 0)
(-4.30475e-05 -1.21903e-05 0)
(1.11907e-06 8.94252e-07 0)
(1.12446e-05 -4.13996e-05 0)
(0.000136143 -0.000130188 0)
(0.000339957 -0.000183149 0)
(0.000563685 -0.000179792 0)
(0.000747152 -0.000127027 0)
(0.000844372 -4.06391e-05 0)
(0.0008256 6.56848e-05 0)
(0.000685381 0.000157937 0)
(0.000444552 0.000231318 0)
(0.000138486 0.000268189 0)
(-0.000189285 0.000265262 0)
(-0.000492423 0.000226197 0)
(-0.000729741 0.000154817 0)
(-0.000866512 6.22852e-05 0)
(-0.00087941 -4.45764e-05 0)
(-0.000775757 -0.000133127 0)
(-0.000585482 -0.000188952 0)
(-0.000352474 -0.000186781 0)
(-0.000139806 -0.000137125 0)
(-1.11149e-05 -4.22184e-05 0)
(2.04291e-05 -0.000132744 0)
(0.000212184 -0.000341418 0)
(0.000499367 -0.000443249 0)
(0.000801502 -0.000421714 0)
(0.00104187 -0.000290268 0)
(0.00116058 -8.30992e-05 0)
(0.00113023 0.000159743 0)
(0.00094061 0.00038926 0)
(0.000611155 0.000561286 0)
(0.000193061 0.000651054 0)
(-0.000256533 0.000647484 0)
(-0.000672816 0.000552596 0)
(-0.000996087 0.00038118 0)
(-0.00118193 0.000154474 0)
(-0.00120786 -9.70813e-05 0)
(-0.00107879 -0.000304185 0)
(-0.00082751 -0.000440065 0)
(-0.000512616 -0.000458934 0)
(-0.000216185 -0.000354124 0)
(-2.12696e-05 -0.000135604 0)
(2.95783e-05 -0.000260522 0)
(0.000270185 -0.000619453 0)
(0.000613969 -0.000772052 0)
(0.000970318 -0.000722324 0)
(0.00124982 -0.000487273 0)
(0.0013832 -0.000125907 0)
(0.00133224 0.000286149 0)
(0.00109768 0.000680644 0)
(0.000711978 0.000973919 0)
(0.000223894 0.00113091 0)
(-0.000301353 0.00112711 0)
(-0.000788226 0.000962315 0)
(-0.00116824 0.000664493 0)
(-0.0013915 0.000274853 0)
(-0.0014366 -0.00014409 0)
(-0.00129722 -0.000513459 0)
(-0.00100261 -0.000754094 0)
(-0.000628271 -0.000804067 0)
(-0.000270484 -0.000638029 0)
(-2.7852e-05 -0.000263813 0)
(3.29696e-05 -0.00041231 0)
(0.000301465 -0.000939712 0)
(0.000685673 -0.00114959 0)
(0.00108251 -0.00106258 0)
(0.00138596 -0.000704023 0)
(0.00152255 -0.000165862 0)
(0.00145675 0.000444305 0)
(0.00119286 0.00101247 0)
(0.000769258 0.00143636 0)
(0.000239418 0.00166711 0)
(-0.000329639 0.00166328 0)
(-0.000857775 0.00142146 0)
(-0.00127472 0.00098771 0)
(-0.00152834 0.000420616 0)
(-0.00158178 -0.000189487 0)
(-0.00143279 -0.000742358 0)
(-0.0011173 -0.0011085 0)
(-0.000705804 -0.00119922 0)
(-0.000306271 -0.000968357 0)
(-3.16083e-05 -0.000415482 0)
(3.20483e-05 -0.000575318 0)
(0.000316256 -0.00128843 0)
(0.000729992 -0.00156467 0)
(0.00114605 -0.00142283 0)
(0.00145132 -0.000926298 0)
(0.00157987 -0.000196015 0)
(0.00150049 0.0006198 0)
(0.00122238 0.00136899 0)
(0.000783942 0.00192546 0)
(0.000239128 0.0022316 0)
(-0.000343601 0.00222679 0)
(-0.000884196 0.00190526 0)
(-0.00131467 0.00133505 0)
(-0.00158171 0.000584782 0)
(-0.00164513 -0.000236181 0)
(-0.00149919 -0.000977122 0)
(-0.00117644 -0.00148405 0)
(-0.000748736 -0.00162414 0)
(-0.000328614 -0.00132801 0)
(-3.50423e-05 -0.000582687 0)
(3.48355e-05 -0.000743371 0)
(0.000322484 -0.00164968 0)
(0.000730013 -0.00198954 0)
(0.00113414 -0.00178099 0)
(0.00142641 -0.00114008 0)
(0.00154215 -0.000213788 0)
(0.00145547 0.000804203 0)
(0.00117916 0.00172973 0)
(0.000746662 0.00242017 0)
(0.000215894 0.00279317 0)
(-0.000344214 0.00278657 0)
(-0.000870494 0.00239219 0)
(-0.00129357 0.00168531 0)
(-0.00155455 0.00075337 0)
(-0.00162055 -0.000274305 0)
(-0.00147996 -0.00121179 0)
(-0.00116544 -0.00185945 0)
(-0.000748588 -0.00205538 0)
(-0.000331957 -0.00169847 0)
(-3.62838e-05 -0.000757396 0)
(3.33756e-05 -0.000909566 0)
(0.00030569 -0.00200094 0)
(0.000681289 -0.00238882 0)
(0.00104656 -0.00211683 0)
(0.001308 -0.00133357 0)
(0.00140867 -0.000223749 0)
(0.00132538 0.00098557 0)
(0.00106749 0.00207421 0)
(0.000671761 0.0028892 0)
(0.000189523 0.00331985 0)
(-0.000320143 0.00331137 0)
(-0.000803443 0.00285921 0)
(-0.0011952 0.00201754 0)
(-0.00143638 0.000914914 0)
(-0.00149652 -0.000308266 0)
(-0.00137035 -0.00143151 0)
(-0.00108568 -0.00221443 0)
(-0.000700071 -0.0024689 0)
(-0.000311362 -0.0020578 0)
(-3.43158e-05 -0.000927806 0)
(3.24623e-05 -0.00106265 0)
(0.000265836 -0.00231493 0)
(0.000579866 -0.00273949 0)
(0.000886162 -0.00241031 0)
(0.00110872 -0.00150233 0)
(0.00119518 -0.000228922 0)
(0.00112371 0.00114834 0)
(0.000900185 0.00238559 0)
(0.000557207 0.00330305 0)
(0.000146998 0.00378406 0)
(-0.000282998 0.00377252 0)
(-0.000687311 0.00327168 0)
(-0.00101915 0.00231588 0)
(-0.00122768 0.00106095 0)
(-0.00128104 -0.000336473 0)
(-0.00117165 -0.00162524 0)
(-0.000926044 -0.00252983 0)
(-0.000598011 -0.00284013 0)
(-0.000265231 -0.00238137 0)
(-2.87253e-05 -0.00108032 0)
(2.42322e-05 -0.00118665 0)
(0.000191621 -0.00256038 0)
(0.000413654 -0.00301483 0)
(0.000632747 -0.00264144 0)
(0.000799851 -0.00164244 0)
(0.000875636 -0.000237746 0)
(0.000830038 0.00127881 0)
(0.000660568 0.00264288 0)
(0.000399116 0.00363946 0)
(8.74646e-05 0.00415881 0)
(-0.000238625 0.0041436 0)
(-0.000541858 0.00359719 0)
(-0.00078934 0.00255848 0)
(-0.000936998 0.00117072 0)
(-0.000957866 -0.0003645 0)
(-0.000863322 -0.00178606 0)
(-0.000679991 -0.00277985 0)
(-0.000442327 -0.00313614 0)
(-0.000199904 -0.00264143 0)
(-2.27728e-05 -0.00120467 0)
(1.22201e-05 -0.00126432 0)
(9.35593e-05 -0.00271116 0)
(0.000199724 -0.00318581 0)
(0.00031855 -0.00279849 0)
(0.000428347 -0.0017488 0)
(0.000490094 -0.000257327 0)
(0.000474277 0.00136437 0)
(0.000374234 0.00282211 0)
(0.000211731 0.00387512 0)
(1.82727e-05 0.00442041 0)
(-0.000180503 0.00440121 0)
(-0.000365607 0.00382056 0)
(-0.000513649 0.00272187 0)
(-0.00059237 0.00123078 0)
(-0.000580146 -0.000407988 0)
(-0.000496634 -0.001907 0)
(-0.000373682 -0.00295216 0)
(-0.000237971 -0.00332585 0)
(-0.000119146 -0.00280435 0)
(-2.19284e-05 -0.00129389 0)
(1.6542e-06 -0.00128924 0)
(-3.00316e-06 -0.0027556 0)
(-1.38864e-05 -0.00324029 0)
(-6.62864e-06 -0.00286999 0)
(2.38027e-05 -0.00181004 0)
(5.7288e-05 -0.000281046 0)
(6.70902e-05 0.00140044 0)
(4.14161e-05 0.00290939 0)
(-7.50782e-06 0.00399322 0)
(-6.46813e-05 0.00454662 0)
(-0.000117893 0.00452291 0)
(-0.000165646 0.00392625 0)
(-0.000195712 0.00278989 0)
(-0.000195644 0.00124215 0)
(-0.000154852 -0.000462351 0)
(-9.24284e-05 -0.00198655 0)
(-4.50968e-05 -0.00303848 0)
(-1.565e-05 -0.00340393 0)
(1.27716e-06 -0.00286138 0)
(3.118e-06 -0.00132833 0)
(-9.92449e-06 -0.00126242 0)
(-0.000100113 -0.00269547 0)
(-0.000225868 -0.00317792 0)
(-0.000334343 -0.00284155 0)
(-0.000391273 -0.00181244 0)
(-0.000388867 -0.000306342 0)
(-0.000352092 0.00138806 0)
(-0.000300895 0.00289837 0)
(-0.000233024 0.00398379 0)
(-0.000151433 0.00452936 0)
(-6.15764e-05 0.00450103 0)
(3.25679e-05 0.00389945 0)
(0.00012669 0.00275176 0)
(0.000216652 0.00119465 0)
(0.000291613 -0.000518807 0)
(0.000322753 -0.002014 0)
(0.000287995 -0.00302594 0)
(0.00019536 -0.00336204 0)
(8.99724e-05 -0.00282031 0)
(1.16193e-05 -0.00130147 0)
(-2.10381e-05 -0.00118517 0)
(-0.000188445 -0.00253514 0)
(-0.000420579 -0.00300059 0)
(-0.000646092 -0.00270478 0)
(-0.000799147 -0.00174859 0)
(-0.000838735 -0.000329562 0)
(-0.000770959 0.00131611 0)
(-0.000631753 0.00278634 0)
(-0.000446569 0.00384515 0)
(-0.000236106 0.00437644 0)
(-1.49131e-05 0.00434129 0)
(0.000211662 0.00373908 0)
(0.00042427 0.00260769 0)
(0.000600412 0.00108015 0)
(0.000702022 -0.000570226 0)
(0.000693138 -0.0019805 0)
(0.000572755 -0.00291207 0)
(0.000377292 -0.00320526 0)
(0.000172171 -0.00268169 0)
(2.01374e-05 -0.00122815 0)
(-2.92299e-05 -0.00106474 0)
(-0.000258496 -0.00228756 0)
(-0.000580653 -0.00271682 0)
(-0.000904867 -0.0024636 0)
(-0.00114145 -0.00161626 0)
(-0.00123388 -0.000333352 0)
(-0.00115967 0.00118477 0)
(-0.000947351 0.00257477 0)
(-0.00065632 0.00358511 0)
(-0.000323629 0.00409491 0)
(2.68728e-05 0.00405114 0)
(0.000374832 0.00345754 0)
(0.000690025 0.00236781 0)
(0.00093038 0.000913639 0)
(0.00104151 -0.00060896 0)
(0.000994232 -0.00188803 0)
(0.000806652 -0.00271015 0)
(0.000525926 -0.00295332 0)
(0.000231875 -0.00245633 0)
(2.37613e-05 -0.00111948 0)
(-3.39167e-05 -0.000913762 0)
(-0.000303102 -0.00197443 0)
(-0.000683726 -0.00235286 0)
(-0.00107204 -0.00214351 0)
(-0.00137041 -0.00142266 0)
(-0.00150933 -0.000305102 0)
(-0.00144859 0.00102508 0)
(-0.0012043 0.00228738 0)
(-0.000839801 0.00322318 0)
(-0.000406371 0.00369283 0)
(5.57177e-05 0.00364114 0)
(0.000505725 0.00307371 0)
(0.000899107 0.00205197 0)
(0.00117467 0.000724689 0)
(0.00127312 -0.0006255 0)
(0.00118469 -0.00174354 0)
(0.000944143 -0.00244404 0)
(0.000610248 -0.00263003 0)
(0.000270353 -0.00217136 0)
(2.92935e-05 -0.000985701 0)
(-3.50192e-05 -0.000747695 0)
(-0.000318218 -0.0016257 0)
(-0.000722576 -0.00194489 0)
(-0.0011409 -0.0017762 0)
(-0.00147593 -0.00118105 0)
(-0.00165234 -0.000244946 0)
(-0.00162058 0.000873163 0)
(-0.00137742 0.00196195 0)
(-0.000973375 0.00278877 0)
(-0.000475007 0.00319919 0)
(5.97093e-05 0.0031395 0)
(0.000573957 0.00261642 0)
(0.00100548 0.00169486 0)
(0.00128391 0.000538452 0)
(0.00136287 -0.000615305 0)
(0.00124723 -0.0015601 0)
(0.00098031 -0.00213933 0)
(0.000627657 -0.00227457 0)
(0.000277051 -0.00186277 0)
(3.01299e-05 -0.000839811 0)
(-3.34762e-05 -0.000581241 0)
(-0.000308771 -0.00127238 0)
(-0.000705995 -0.0015269 0)
(-0.00112369 -0.00139158 0)
(-0.00146774 -0.000912845 0)
(-0.00166234 -0.000158108 0)
(-0.00165703 0.000747459 0)
(-0.00143909 0.00163608 0)
(-0.00104017 0.00232313 0)
(-0.000526003 0.00266043 0)
(3.0612e-05 0.0025931 0)
(0.000559705 0.00212885 0)
(0.000987613 0.00133572 0)
(0.00124913 0.000367311 0)
(0.00131228 -0.000587517 0)
(0.00118859 -0.00136114 0)
(0.000925237 -0.00182839 0)
(0.000587254 -0.00192194 0)
(0.000256639 -0.00156103 0)
(2.68832e-05 -0.000698144 0)
(-3.0053e-05 -0.000425317 0)
(-0.000282785 -0.000937913 0)
(-0.000651536 -0.00112668 0)
(-0.00104405 -0.00101645 0)
(-0.00137377 -0.000641823 0)
(-0.00157095 -5.46815e-05 0)
(-0.00158651 0.000650111 0)
(-0.00140329 0.0013405 0)
(-0.00104252 0.00187383 0)
(-0.00056107 0.00212936 0)
(-3.39254e-05 0.0020545 0)
(0.000463543 0.00165673 0)
(0.000857655 0.00100119 0)
(0.00109256 0.000214206 0)
(0.00114629 -0.000554266 0)
(0.00103434 -0.00117266 0)
(0.000801279 -0.00154158 0)
(0.000505259 -0.00160194 0)
(0.0002184 -0.00129004 0)
(2.18522e-05 -0.000573314 0)
(-2.59001e-05 -0.000286261 0)
(-0.000249152 -0.0006361 0)
(-0.000578421 -0.000762092 0)
(-0.000931937 -0.000670435 0)
(-0.00123277 -0.000385494 0)
(-0.00142071 5.5579e-05 0)
(-0.00145175 0.000580376 0)
(-0.00130739 0.00109039 0)
(-0.00100349 0.00147719 0)
(-0.000587625 0.00165113 0)
(-0.000127165 0.00156792 0)
(0.000307459 0.00123385 0)
(0.00065016 0.000705063 0)
(0.000855663 7.84888e-05 0)
(0.000907778 -0.000528375 0)
(0.000822047 -0.00101561 0)
(0.000636624 -0.00130144 0)
(0.000399383 -0.00133538 0)
(0.000170202 -0.0010659 0)
(1.57909e-05 -0.00047261 0)
(-2.19448e-05 -0.000165815 0)
(-0.000215635 -0.000371483 0)
(-0.000503842 -0.000440347 0)
(-0.000815151 -0.000362274 0)
(-0.00108219 -0.000153144 0)
(-0.0012549 0.000165396 0)
(-0.001297 0.000536545 0)
(-0.00119151 0.000891724 0)
(-0.000951132 0.00115087 0)
(-0.000614278 0.00125101 0)
(-0.000237129 0.00115783 0)
(0.000121881 0.000876312 0)
(0.000407445 0.000452549 0)
(0.000584971 -4.392e-05 0)
(0.000640827 -0.000518687 0)
(0.000588193 -0.000901841 0)
(0.000457406 -0.00111945 0)
(0.000285305 -0.0011328 0)
(0.000118933 -0.000895925 0)
(9.3552e-06 -0.000399282 0)
(-1.87934e-05 -6.19656e-05 0)
(-0.000187939 -0.000140966 0)
(-0.000440014 -0.000159861 0)
(-0.000712959 -9.12493e-05 0)
(-0.000947126 5.27272e-05 0)
(-0.0011035 0.000272447 0)
(-0.00115464 0.000515745 0)
(-0.00108427 0.000744233 0)
(-0.000904433 0.000897291 0)
(-0.000644583 0.000935185 0)
(-0.000350762 0.000830353 0)
(-6.56476e-05 0.000586101 0)
(0.00016488 0.000242658 0)
(0.000318489 -0.000157699 0)
(0.000379916 -0.000527394 0)
(0.000360113 -0.000835309 0)
(0.000283228 -0.000996826 0)
(0.000174615 -0.000996834 0)
(6.9827e-05 -0.000780237 0)
(2.79843e-06 -0.000353385 0)
(-1.63753e-05 2.9626e-05 0)
(-0.000169288 6.33524e-05 0)
(-0.000392916 8.51537e-05 0)
(-0.000634764 0.000148943 0)
(-0.000837677 0.000231806 0)
(-0.000977431 0.000377866 0)
(-0.00103693 0.000513366 0)
(-0.000994852 0.000642313 0)
(-0.000866287 0.000708609 0)
(-0.000672215 0.000697421 0)
(-0.000453404 0.000580497 0)
(-0.000232387 0.000357733 0)
(-5.19354e-05 7.153e-05 0)
(8.41728e-05 -0.000266638 0)
(0.000148699 -0.000550746 0)
(0.000156023 -0.000815719 0)
(0.000127339 -0.000927511 0)
(7.4314e-05 -0.00092546 0)
(2.76113e-05 -0.00071486 0)
(-3.39742e-06 -0.000332561 0)
(-1.54039e-05 0.000115905 0)
(-0.000161381 0.00025026 0)
(-0.000361157 0.000297942 0)
(-0.000579553 0.00036652 0)
(-0.000747928 0.000378888 0)
(-0.000867438 0.000485565 0)
(-0.000935758 0.000518794 0)
(-0.000910458 0.000575123 0)
(-0.000820344 0.000567584 0)
(-0.000675647 0.000524169 0)
(-0.00052333 0.000399481 0)
(-0.000355823 0.000189466 0)
(-0.000222423 -5.86516e-05 0)
(-9.36964e-05 -0.00037255 0)
(-3.45259e-05 -0.000585707 0)
(-8.73476e-06 -0.000836692 0)
(3.2126e-06 -0.000904147 0)
(-9.25948e-06 -0.000908879 0)
(-4.09674e-06 -0.000693516 0)
(-1.10336e-05 -0.00033421 0)
(-1.07268e-05 0.000190441 0)
(-0.000167775 0.000414047 0)
(-0.000335506 0.000460198 0)
(-0.000536848 0.000561045 0)
(-0.000654336 0.000467232 0)
(-0.00074238 0.000597739 0)
(-0.000823789 0.000506395 0)
(-0.000793305 0.000525213 0)
(-0.000727182 0.00043644 0)
(-0.000609551 0.000378959 0)
(-0.000517819 0.000231663 0)
(-0.000400714 4.20039e-06 0)
(-0.000328922 -0.000176141 0)
(-0.000199171 -0.000490236 0)
(-0.000148676 -0.000620673 0)
(-0.000116108 -0.000885811 0)
(-7.24241e-05 -0.000909167 0)
(-6.67794e-05 -0.000929669 0)
(-2.21212e-05 -0.000698076 0)
(-2.12152e-05 -0.000354486 0)
(-1.49663e-05 0.000347733 0)
(-0.000194701 0.000642959 0)
(-0.000295987 0.000684649 0)
(-0.000489456 0.000810507 0)
(-0.000520069 0.000602808 0)
(-0.000554617 0.000796355 0)
(-0.000663602 0.000590141 0)
(-0.000595232 0.000606391 0)
(-0.000548984 0.000483827 0)
(-0.000443859 0.00045031 0)
(-0.000435864 0.000284505 0)
(-0.000312277 2.0329e-05 0)
(-0.000290849 -0.000137453 0)
(-0.000180151 -0.000495009 0)
(-0.000155181 -0.000578708 0)
(-0.000140865 -0.000885051 0)
(-7.2656e-05 -0.000892763 0)
(-7.64227e-05 -0.000923879 0)
(-1.87501e-05 -0.000667998 0)
(-2.42513e-05 -0.000345455 0)
(-2.24512e-05 0.000339527 0)
(-0.000238987 0.000511065 0)
(-0.000236543 0.000361793 0)
(-0.000406012 0.000692748 0)
(-0.000312681 0.000369213 0)
(-0.000255138 0.00069909 0)
(-0.000358322 3.5604e-05 0)
(-0.000198785 0.000313119 0)
(-0.000148752 0.000186736 0)
(-9.13733e-05 0.000252897 0)
(-0.000180073 -0.000112599 0)
(-0.000113738 -0.000376637 0)
(-0.000172107 -0.000409513 0)
(-0.000102409 -0.000819253 0)
(-8.18461e-05 -0.00080081 0)
(-7.5223e-05 -0.00137325 0)
(2.02858e-05 -0.0011519 0)
(6.28328e-06 -0.00117538 0)
(1.31895e-05 -0.000863054 0)
(-4.91805e-05 -0.000623434 0)
(-0.000189457 0.00133781 0)
(-0.000516839 0.00130647 0)
(-0.000107225 0.000902758 0)
(8.70957e-06 0.00179921 0)
(6.8052e-06 0.00132845 0)
(-0.000160468 0.00151538 0)
(2.4913e-05 0.000100097 0)
(0.000625881 0.000922355 0)
(0.000512286 0.000986755 0)
(0.000273292 0.000995916 0)
(0.000176586 0.000114629 0)
(0.000442061 -0.000154788 0)
(0.000339826 0.000188964 0)
(0.000164838 -0.000205527 0)
(1.11426e-05 -0.000202155 0)
(0.000169336 -0.00154115 0)
(0.000474792 -0.000752444 0)
(0.000252927 -0.000505296 0)
(-2.99218e-05 -0.00036266 0)
(-0.000164197 -0.000724285 0)
(-0.000484338 0.00174743 0)
(-0.000973803 -0.000317379 0)
(0.000517942 -0.00216522 0)
(0.00132482 -0.000182474 0)
(8.14133e-05 0.00113469 0)
(-0.000674342 -0.000345617 0)
(0.000654243 -0.00339227 0)
(0.00217903 -0.00086353 0)
(0.00144627 0.00104556 0)
(0.000298405 0.00069746 0)
(0.000767174 -0.00128696 0)
(0.00157024 -0.00162339 0)
(0.00168996 -0.000633481 0)
(0.000493228 1.41119e-05 0)
(-0.000278701 -0.0010442 0)
(0.000462729 -0.00406435 0)
(0.00163471 -0.00172539 0)
(0.000680633 3.95264e-05 0)
(-0.000672303 -0.000326981 0)
(-0.000683817 -0.00179292 0)
(-0.0015976 0.00325032 0)
(-0.00383056 0.00168644 0)
(0.00217134 0.00061902 0)
(0.00606179 0.00282659 0)
(0.000626884 0.0061909 0)
(-0.00368877 0.00271829 0)
(0.00192815 -0.000842999 0)
(0.00789892 0.00230203 0)
(0.00319306 0.00433007 0)
(0.000302998 0.00202437 0)
(0.00180068 -0.000339891 0)
(0.00473645 0.000874953 0)
(0.0053299 0.0017704 0)
(0.00113851 0.00428467 0)
(-0.00231262 0.00193814 0)
(0.00090068 -0.00180336 0)
(0.00590054 0.00128316 0)
(0.00170906 0.00415598 0)
(-0.0018801 0.00187247 0)
(-0.00208679 -0.000964776 0)
(-0.00067854 0.00400489 0)
(-0.000755176 -0.00400945 0)
(0.00471184 -0.0165053 0)
(0.00525203 -0.00136411 0)
(0.00165366 0.00517214 0)
(-0.00104555 -0.0021785 0)
(0.00344013 -0.0217824 0)
(0.00984672 -0.000865485 0)
(0.00570392 0.00462134 0)
(0.00373913 -0.000649461 0)
(0.00470982 -0.00657861 0)
(0.00828276 -0.00628014 0)
(0.0066006 -0.001306 0)
(0.00227153 0.00264428 0)
(-0.00149508 0.00084368 0)
(0.00192181 -0.0184638 0)
(0.00887892 -0.00141294 0)
(0.00239883 0.00341411 0)
(-0.000568103 0.000493814 0)
(-0.00164908 -0.00628481 0)
(0.00401457 0.0161201 0)
(0.00228851 -0.0113424 0)
(-0.00189529 -0.028694 0)
(-0.00291664 -0.000139707 0)
(-0.000892565 0.0404122 0)
(0.00783858 -0.00862929 0)
(0.00907228 -0.0432142 0)
(0.00726565 -0.00578951 0)
(0.013264 0.0304356 0)
(0.00949741 0.00435465 0)
(0.00379232 -0.0171953 0)
(-0.0011488 -0.012314 0)
(-0.00412362 0.00526125 0)
(-0.00607224 0.0322145 0)
(0.00245874 -0.00313559 0)
(0.00464281 -0.0409512 0)
(0.00642688 -0.00823614 0)
(0.0116429 0.0341139 0)
(0.00732993 0.00861847 0)
(0.00490657 -0.0165294 0)
(-0.00413196 0.00892293 0)
(-0.0106031 -0.00427161 0)
(-0.0101214 -0.000805013 0)
(-0.00490747 -0.00508821 0)
(0.000660757 0.0141351 0)
(0.00531836 -0.01799 0)
(0.00922919 -0.00796429 0)
(0.00784903 -0.00704365 0)
(0.0044501 0.0178169 0)
(-0.00409928 0.0158817 0)
(-0.00875198 0.00349224 0)
(-0.0138992 0.0071248 0)
(-0.0122588 0.00534272 0)
(-0.00882431 0.0152728 0)
(-0.00575387 -0.0160101 0)
(0.000617845 -0.00788669 0)
(0.003605 -0.0114322 0)
(0.00580946 0.0153846 0)
(0.0082802 0.0134591 0)
(0.0057327 0.00860829 0)
(0.00364817 0.0144777 0)
(0.00210405 -0.00443864 0)
(-0.000843496 -0.00394719 0)
(-0.00147094 -0.0114281 0)
(0.00322634 0.00511703 0)
(0.00524628 -0.0202167 0)
(0.00150518 -0.00977353 0)
(-0.00116863 -0.00493986 0)
(-0.00238257 0.0175889 0)
(0.00131914 0.0187843 0)
(-0.000274091 0.00249216 0)
(-0.00193567 0.0062525 0)
(-0.0020933 -0.00101621 0)
(0.00186597 0.00912618 0)
(0.00314271 -0.0177531 0)
(-0.00129721 -0.0145632 0)
(-0.00412406 -0.0116148 0)
(-0.00512287 0.00986261 0)
(-0.00328024 0.0104644 0)
(0.000173944 0.00584171 0)
(0.00250678 0.00625045 0)
(0.00447462 0.00055841 0)
(0.00257321 -0.00203849 0)
(0.000991591 -0.00892645 0)
(0.00304264 -0.00687981 0)
(0.00308209 -0.0134029 0)
(-0.00106407 -0.00561372 0)
(-0.00363361 -0.00072912 0)
(-0.00277784 0.00938585 0)
(0.00232057 0.0129413 0)
(0.00330203 0.00792213 0)
(0.00179996 0.00648527 0)
(0.00173901 -0.000525587 0)
(0.00372688 -0.00145477 0)
(0.00297625 -0.010977 0)
(-0.00176835 -0.00818905 0)
(-0.00612631 -0.00644051 0)
(-0.00676722 0.00227518 0)
(-0.00340834 0.00653378 0)
(0.000291209 0.00676543 0)
(0.000913986 0.0033543 0)
(0.00315721 0.000472387 0)
(0.00336854 -0.00261409 0)
(0.00262188 -0.00647429 0)
(0.00213047 -0.00672659 0)
(0.000505701 -0.00892015 0)
(-0.00199183 -0.00453486 0)
(-0.00288262 0.00052667 0)
(-0.00197615 0.00746026 0)
(0.00106031 0.0100086 0)
(0.00295546 0.00731733 0)
(0.00350476 0.0049425 0)
(0.00346008 0.00127842 0)
(0.0032244 -0.00143217 0)
(0.0013189 -0.00614715 0)
(-0.00186986 -0.00571916 0)
(-0.0044251 -0.00345448 0)
(-0.00518215 0.00219948 0)
(-0.0034158 0.00484574 0)
(-0.000566386 0.00348185 0)
(0.000460967 0.00134676 0)
(0.00205046 -0.000305864 0)
(0.00261758 -0.00269035 0)
(0.00224979 -0.00536651 0)
(0.00128796 -0.00624249 0)
(-0.000341144 -0.00640274 0)
(-0.0019457 -0.00324629 0)
(-0.00237989 0.000780134 0)
(-0.00156407 0.00518881 0)
(0.000569865 0.00738762 0)
(0.00229585 0.00658939 0)
(0.00308671 0.00460591 0)
(0.00310571 0.0017078 0)
(0.00244512 -0.000839607 0)
(0.000721307 -0.0033631 0)
(-0.00145111 -0.00321346 0)
(-0.0030909 -0.00170774 0)
(-0.00356516 0.00124651 0)
(-0.00236819 0.00281181 0)
(-0.000393165 0.00193228 0)
(0.000210876 0.000343342 0)
(0.00119093 -0.0011322 0)
(0.00165561 -0.00289981 0)
(0.00145209 -0.00466785 0)
(0.000656994 -0.00530895 0)
(-0.000535975 -0.00486617 0)
(-0.00155075 -0.00249192 0)
(-0.00177222 0.000634765 0)
(-0.00113325 0.0038548 0)
(0.000260423 0.00569615 0)
(0.00152461 0.0055359 0)
(0.00220244 0.00416655 0)
(0.00223494 0.00205241 0)
(0.00165501 2.29221e-05 0)
(0.000425606 -0.00158417 0)
(-0.000995306 -0.00166766 0)
(-0.00200917 -0.000798712 0)
(-0.00221117 0.000750487 0)
(-0.00142467 0.0015319 0)
(-0.000232256 0.000904869 0)
(8.89076e-05 -0.000145053 0)
(0.000593438 -0.00161141 0)
(0.000870836 -0.00302992 0)
(0.000762339 -0.00422064 0)
(0.000267802 -0.00458347 0)
(-0.000439506 -0.00394188 0)
(-0.000989971 -0.00204465 0)
(-0.00109597 0.000474425 0)
(-0.00070474 0.00298496 0)
(0.000113475 0.00457046 0)
(0.000903545 0.00473954 0)
(0.00136251 0.00383181 0)
(0.00138612 0.00228703 0)
(0.000980003 0.000709598 0)
(0.000204573 -0.000475679 0)
(-0.000644889 -0.000726227 0)
(-0.00121902 -0.000303639 0)
(-0.0012872 0.00044025 0)
(-0.00080606 0.000718217 0)
(-0.000117981 0.000286276 0)
(2.51128e-05 -0.000388029 0)
(0.00017801 -0.00188928 0)
(0.000267594 -0.00312746 0)
(0.00023048 -0.00402525 0)
(5.87986e-05 -0.00420742 0)
(-0.000183869 -0.00349098 0)
(-0.000371042 -0.00183847 0)
(-0.00051768 0.000457642 0)
(-0.00036909 0.00256078 0)
(7.9407e-05 0.00396569 0)
(0.000542637 0.00427048 0)
(0.000823143 0.00365584 0)
(0.000822346 0.00248286 0)
(0.00053642 0.00121202 0)
(4.24431e-05 0.000220936 0)
(-0.000466621 -0.000153476 0)
(-0.000795529 -5.44388e-05 0)
(-0.000817436 0.000219433 0)
(-0.000517117 0.000196783 0)
(-7.67132e-05 -6.71344e-05 0)
)
;

boundaryField
{
    top
    {
        type            pressureInletOutletVelocity;
        value           nonuniform List<vector> 
20
(
(0 -0.000388029 0)
(0 -0.00188928 0)
(0 -0.00312746 0)
(0 -0.00402525 0)
(0 -0.00420742 0)
(0 -0.00349098 0)
(0 -0.00183847 0)
(-0.00051768 0.000457642 0)
(-0.00036909 0.00256078 0)
(7.9407e-05 0.00396569 0)
(0.000542637 0.00427048 0)
(0.000823143 0.00365584 0)
(0.000822346 0.00248286 0)
(0.00053642 0.00121202 0)
(4.24431e-05 0.000220936 0)
(0 -0.000153476 0)
(0 -5.44388e-05 0)
(-0.000817436 0.000219433 0)
(-0.000517117 0.000196783 0)
(0 -6.71344e-05 0)
)
;
    }
    left
    {
        type            noSlip;
    }
    right
    {
        type            noSlip;
    }
    bottom
    {
        type            noSlip;
    }
    front
    {
        type            empty;
    }
    back
    {
        type            empty;
    }
    frontAndBack
    {
        type            empty;
    }
}


// ************************************************************************* //
