/*--------------------------------*- C++ -*----------------------------------*\
  =========                 |
  \\      /  F ield         | OpenFOAM: The Open Source CFD Toolbox
   \\    /   O peration     | Website:  https://openfoam.org
    \\  /    A nd           | Version:  10
     \\/     M anipulation  |
\*---------------------------------------------------------------------------*/
FoamFile
{
    format      ascii;
    class       surfaceScalarField;
    location    "0.07";
    object      alphaPhi.water;
}
// * * * * * * * * * * * * * * * * * * * * * * * * * * * * * * * * * * * * * //

dimensions      [0 3 -1 0 0 0 0];

internalField   nonuniform List<scalar> 
1540
(
6.84173e-14
-6.83109e-14
2.80672e-13
-2.12136e-13
6.08817e-13
-3.2802e-13
9.24997e-13
-3.16056e-13
1.11983e-12
-1.94693e-13
1.16067e-12
-4.07198e-14
1.00911e-12
1.51688e-13
7.25558e-13
2.83669e-13
3.25977e-13
3.99705e-13
-1.13929e-13
4.40028e-13
-5.35487e-13
4.21683e-13
-9.05384e-13
3.70016e-13
-1.16563e-12
2.60377e-13
-1.29998e-12
1.34474e-13
-1.21264e-12
-8.72273e-14
-9.53132e-13
-2.59382e-13
-5.92544e-13
-3.60469e-13
-2.95923e-13
-2.96483e-13
-5.26692e-14
-2.4312e-13
-5.26012e-14
2.57405e-13
-3.25598e-13
8.33245e-13
-7.8784e-13
1.54316e-12
-1.0378e-12
2.17723e-12
-9.49982e-13
2.58547e-12
-6.02802e-13
2.66058e-12
-1.15682e-13
2.2806e-12
5.31798e-13
1.60785e-12
9.56559e-13
6.92572e-13
1.31513e-12
-2.95467e-13
1.4282e-12
-1.26683e-12
1.39317e-12
-2.12301e-12
1.22634e-12
-2.73977e-12
8.77285e-13
-2.97064e-12
3.6547e-13
-2.81542e-12
-2.4231e-13
-2.33647e-12
-7.38216e-13
-1.64063e-12
-1.05616e-12
-8.52278e-13
-1.08469e-12
-2.43231e-13
-8.52025e-13
-2.95765e-13
3.98637e-13
-7.24108e-13
1.26649e-12
-1.65555e-12
2.20512e-12
-1.97629e-12
3.03431e-12
-1.77903e-12
3.52503e-12
-1.09337e-12
3.5286e-12
-1.1911e-13
3.1347e-12
9.25839e-13
2.20976e-12
1.88164e-12
1.00321e-12
2.52182e-12
-3.82296e-13
2.81385e-12
-1.75216e-12
2.76318e-12
-2.90958e-12
2.3839e-12
-3.72233e-12
1.69017e-12
-4.04285e-12
6.8614e-13
-3.90536e-12
-3.79672e-13
-3.27314e-12
-1.37029e-12
-2.32208e-12
-2.00708e-12
-1.26581e-12
-2.14082e-12
-3.8926e-13
-1.72843e-12
-6.8496e-13
5.38362e-13
-1.26234e-12
1.55489e-12
-2.67194e-12
2.6703e-12
-3.09155e-12
3.64069e-12
-2.74928e-12
4.2128e-12
-1.66534e-12
4.23947e-12
-1.45643e-13
3.64291e-12
1.52255e-12
2.58415e-12
2.94054e-12
1.15562e-12
3.9505e-12
-4.58442e-13
4.42805e-12
-2.05105e-12
4.35593e-12
-3.40487e-12
3.73785e-12
-4.32289e-12
2.60834e-12
-4.79426e-12
1.1576e-12
-4.6346e-12
-5.39152e-13
-3.92413e-12
-2.08063e-12
-2.79735e-12
-3.13372e-12
-1.52393e-12
-3.4141e-12
-4.81055e-13
-2.77118e-12
-1.16595e-12
5.06942e-13
-1.76917e-12
1.6037e-12
-3.76858e-12
2.91693e-12
-4.40466e-12
4.03543e-12
-3.86764e-12
4.68391e-12
-2.31367e-12
4.70372e-12
-1.65311e-13
4.02833e-12
2.19807e-12
2.82242e-12
4.14662e-12
1.24974e-12
5.52332e-12
-5.2002e-13
6.19795e-12
-2.27442e-12
6.11046e-12
-3.79353e-12
5.25711e-12
-4.89005e-12
3.70499e-12
-5.37851e-12
1.64619e-12
-5.23073e-12
-6.86802e-13
-4.43305e-12
-2.87816e-12
-3.16422e-12
-4.40241e-12
-1.71886e-12
-4.85931e-12
-5.32821e-13
-3.9571e-12
-1.69871e-12
5.31086e-13
-2.30013e-12
1.73355e-12
-4.97092e-12
3.18543e-12
-5.85641e-12
4.35214e-12
-5.03422e-12
5.00672e-12
-2.96811e-12
4.97663e-12
-1.35081e-13
4.29299e-12
2.88185e-12
2.9925e-12
5.4472e-12
1.33515e-12
7.18082e-12
-5.53229e-13
8.08646e-12
-2.42047e-12
7.97784e-12
-4.05697e-12
6.89375e-12
-5.22377e-12
4.87191e-12
-5.89813e-12
2.32066e-12
-5.70198e-12
-8.82802e-13
-4.82713e-12
-3.75287e-12
-3.46073e-12
-5.76867e-12
-1.91271e-12
-6.4072e-12
-6.06394e-13
-5.26329e-12
-2.30504e-12
6.00166e-13
-2.90018e-12
1.88069e-12
-6.2513e-12
3.32305e-12
-7.29863e-12
4.53281e-12
-6.24384e-12
5.18864e-12
-3.62381e-12
5.17902e-12
-1.25296e-13
4.46462e-12
3.59635e-12
3.16174e-12
6.75017e-12
1.41816e-12
8.92453e-12
-5.70182e-13
1.00749e-11
-2.53245e-12
9.94024e-12
-4.215e-12
8.57642e-12
-5.54165e-12
6.19869e-12
-6.06415e-12
2.84329e-12
-5.93216e-12
-1.01465e-12
-5.02639e-12
-4.65851e-12
-3.61994e-12
-7.175e-12
-2.04169e-12
-7.98531e-12
-6.45243e-13
-6.65961e-12
-2.95023e-12
5.55908e-13
-3.45597e-12
1.88789e-12
-7.58315e-12
3.33418e-12
-8.74478e-12
4.52841e-12
-7.43793e-12
5.1826e-12
-4.27785e-12
5.1266e-12
-6.9148e-14
4.45454e-12
4.26849e-12
3.25621e-12
7.94862e-12
1.44709e-12
1.07338e-11
-5.94163e-13
1.21163e-11
-2.58448e-12
1.19307e-11
-4.30386e-12
1.02959e-11
-5.57779e-12
7.47273e-12
-6.1944e-12
3.46003e-12
-5.88939e-12
-1.31952e-12
-4.9882e-12
-5.55956e-12
-3.58798e-12
-8.57509e-12
-1.99412e-12
-9.57904e-12
-6.48471e-13
-8.00517e-12
-3.59863e-12
6.33324e-13
-4.08916e-12
1.80357e-12
-8.75327e-12
3.15914e-12
-1.01002e-11
4.29493e-12
-8.5736e-12
4.88376e-12
-4.86658e-12
4.86892e-12
-5.4238e-14
4.24672e-12
4.89077e-12
3.01083e-12
9.18467e-12
1.30319e-12
1.24416e-11
-6.44166e-13
1.40639e-11
-2.54848e-12
1.38352e-11
-4.22431e-12
1.19719e-11
-5.3007e-12
8.54925e-12
-5.66295e-12
3.82238e-12
-5.48428e-12
-1.49806e-12
-4.66074e-12
-6.38298e-12
-3.41181e-12
-9.82389e-12
-1.9183e-12
-1.10725e-11
-5.87117e-13
-9.33624e-12
-4.18569e-12
4.60665e-13
-4.54971e-12
1.46171e-12
-9.75419e-12
2.6472e-12
-1.12856e-11
3.66381e-12
-9.5901e-12
4.34873e-12
-5.55137e-12
4.4149e-12
-1.20343e-13
3.84633e-12
5.45947e-12
2.60603e-12
1.04251e-11
1.05043e-12
1.39973e-11
-6.75082e-13
1.57895e-11
-2.41055e-12
1.55708e-11
-3.86929e-12
1.34307e-11
-4.79134e-12
9.47142e-12
-5.05861e-12
4.08975e-12
-4.78426e-12
-1.77235e-12
-3.9943e-12
-7.17288e-12
-2.88645e-12
-1.09317e-11
-1.6497e-12
-1.23091e-11
-4.98894e-13
-1.04869e-11
-4.68453e-12
3.98829e-13
-4.94845e-12
1.13256e-12
-1.04878e-11
1.98518e-12
-1.21381e-11
2.95125e-12
-1.05561e-11
3.6233e-12
-6.22332e-12
3.72037e-12
-2.17326e-13
3.2206e-12
5.9594e-12
2.18144e-12
1.14645e-11
7.97394e-13
1.53815e-11
-6.84933e-13
1.72719e-11
-2.11872e-12
1.70047e-11
-3.27574e-12
1.45879e-11
-4.05654e-12
1.02523e-11
-4.28535e-12
4.31867e-12
-3.92621e-12
-2.13141e-12
-3.22914e-12
-7.86983e-12
-2.2507e-12
-1.19101e-11
-1.22529e-12
-1.33344e-11
-5.02879e-13
-1.12092e-11
-5.18736e-12
3.22817e-13
-5.2712e-12
8.85123e-13
-1.10501e-11
1.56569e-12
-1.28186e-11
2.15676e-12
-1.1147e-11
2.595e-12
-6.66146e-12
2.72018e-12
-3.424e-13
2.31793e-12
6.36181e-12
1.47704e-12
1.23055e-11
4.11314e-13
1.64473e-11
-6.99583e-13
1.83829e-11
-1.74402e-12
1.80492e-11
-2.60037e-12
1.54443e-11
-3.13121e-12
1.07833e-11
-3.14173e-12
4.3293e-12
-2.7428e-12
-2.53023e-12
-2.06098e-12
-8.55157e-12
-1.40236e-12
-1.25686e-11
-7.00404e-13
-1.40362e-11
-1.37811e-13
-1.17717e-11
-5.32512e-12
1.89135e-13
-5.46023e-12
3.61741e-13
-1.12226e-11
6.98578e-13
-1.31553e-11
9.42887e-13
-1.13912e-11
1.16273e-12
-6.88119e-12
1.21562e-12
-3.95186e-13
9.72515e-13
6.60501e-12
5.26267e-13
1.27519e-11
-9.13908e-14
1.7065e-11
-7.43851e-13
1.90355e-11
-1.32911e-12
1.86346e-11
-1.69817e-12
1.58134e-11
-1.8242e-12
1.09094e-11
-1.7533e-12
4.25854e-12
-1.39264e-12
-2.89077e-12
-9.49355e-13
-8.99476e-12
-6.08327e-13
-1.29095e-11
-3.21971e-13
-1.43225e-11
-8.33185e-14
-1.20103e-11
-5.4084e-12
-7.09073e-14
-5.38923e-12
-1.45797e-13
-1.11476e-11
-3.41053e-13
-1.296e-11
-4.52968e-13
-1.12793e-11
-4.68804e-13
-6.86525e-12
-4.28356e-13
-4.35538e-13
-4.69975e-13
6.64672e-12
-5.74712e-13
1.28567e-11
-6.93803e-13
1.71842e-11
-8.64045e-13
1.92058e-11
-9.49633e-13
1.87202e-11
-8.88556e-13
1.57525e-11
-5.858e-13
1.06068e-11
-3.10981e-13
3.98379e-12
8.93425e-15
-3.2106e-12
1.78664e-13
-9.16439e-12
2.90729e-13
-1.30215e-11
1.50497e-13
-1.41822e-11
2.81039e-14
-1.18878e-11
-5.38025e-12
-2.31106e-13
-5.15804e-12
-6.82727e-13
-1.06959e-11
-1.33794e-12
-1.23047e-11
-1.85624e-12
-1.07609e-11
-2.16727e-12
-6.55412e-12
-2.10848e-12
-4.94229e-13
-2.01701e-12
6.55533e-12
-1.72766e-12
1.25675e-11
-1.37078e-12
1.68274e-11
-9.46526e-13
1.87816e-11
-4.62586e-13
1.82364e-11
1.14226e-13
1.51757e-11
6.1308e-13
1.01081e-11
1.159e-12
3.43796e-12
1.34554e-12
-3.39705e-12
1.38154e-12
-9.20031e-12
1.18004e-12
-1.28199e-11
7.28033e-13
-1.37301e-11
2.20379e-13
-1.13801e-11
-5.15983e-12
-3.98975e-13
-4.759e-12
-1.28674e-12
-9.80807e-12
-2.30866e-12
-1.12827e-11
-3.15654e-12
-9.91291e-12
-3.68706e-12
-6.02354e-12
-3.77619e-12
-4.05013e-13
-3.3642e-12
6.14344e-12
-2.78737e-12
1.19908e-11
-2.02229e-12
1.60624e-11
-1.03596e-12
1.77954e-11
-4.91045e-14
1.72496e-11
8.93508e-13
1.42333e-11
1.8166e-12
9.18507e-12
2.4566e-12
2.79802e-12
2.76992e-12
-3.71029e-12
2.55287e-12
-8.9832e-12
1.95217e-12
-1.22191e-11
1.15298e-12
-1.29309e-11
3.95661e-13
-1.06227e-11
-4.76414e-12
-5.39076e-13
-4.21986e-12
-1.72838e-12
-8.61871e-12
-3.09753e-12
-9.91352e-12
-4.33149e-12
-8.6789e-12
-5.10844e-12
-5.24653e-12
-5.27158e-12
-2.41764e-13
-4.73481e-12
5.60671e-12
-3.83644e-12
1.10925e-11
-2.58951e-12
1.48158e-11
-1.1834e-12
1.63895e-11
3.41026e-13
1.57254e-11
1.75491e-12
1.28196e-11
2.99917e-12
7.94088e-12
3.83026e-12
1.96699e-12
3.9489e-12
-3.82885e-12
3.48939e-12
-8.52364e-12
2.59022e-12
-1.13199e-11
1.48016e-12
-1.18208e-11
4.82393e-13
-9.62491e-12
-4.28172e-12
-6.33298e-13
-3.58651e-12
-1.99072e-12
-7.26124e-12
-3.61584e-12
-8.28835e-12
-5.09749e-12
-7.1972e-12
-6.07233e-12
-4.27162e-12
-6.38276e-12
6.87476e-14
-5.86334e-12
5.08736e-12
-4.63938e-12
9.86855e-12
-3.07767e-12
1.32541e-11
-1.29677e-12
1.46087e-11
5.90637e-13
1.38381e-11
2.37168e-12
1.10386e-11
3.79735e-12
6.51526e-12
4.56262e-12
1.2018e-12
4.61525e-12
-3.88143e-12
3.99615e-12
-7.9045e-12
2.92142e-12
-1.02451e-11
1.65964e-12
-1.0559e-11
5.30773e-13
-8.496e-12
-3.75092e-12
-6.57882e-13
-2.92859e-12
-2.0948e-12
-5.82429e-12
-3.80155e-12
-6.58156e-12
-5.37163e-12
-5.62708e-12
-6.47351e-12
-3.1697e-12
-6.89627e-12
4.91571e-13
-6.51881e-12
4.70997e-12
-5.26698e-12
8.61677e-12
-3.46779e-12
1.1455e-11
-1.40943e-12
1.25504e-11
7.07038e-13
1.17217e-11
2.6424e-12
9.10328e-12
4.05749e-12
5.10021e-12
4.75801e-12
5.01337e-13
4.71573e-12
-3.83912e-12
4.0347e-12
-7.22343e-12
2.92779e-12
-9.13819e-12
1.64983e-12
-9.28096e-12
5.29406e-13
-7.37554e-12
-3.2215e-12
-6.24373e-13
-2.30419e-12
-2.02118e-12
-4.42746e-12
-3.69128e-12
-4.91143e-12
-5.26283e-12
-4.05551e-12
-6.43637e-12
-1.99612e-12
-6.93244e-12
9.87679e-13
-6.58955e-12
4.36712e-12
-5.44549e-12
7.47275e-12
-3.64839e-12
9.65791e-12
-1.52849e-12
1.04305e-11
6.20048e-13
9.57315e-12
2.50801e-12
7.21535e-12
3.84244e-12
3.76582e-12
4.47073e-12
-1.26913e-13
4.3869e-12
-3.75525e-12
3.71432e-12
-6.55082e-12
2.66758e-12
-8.09141e-12
1.48959e-12
-8.10294e-12
4.73195e-13
-6.35912e-12
-2.74829e-12
-5.4867e-13
-1.7555e-12
-1.81859e-12
-3.15752e-12
-3.36785e-12
-3.36215e-12
-4.86039e-12
-2.56294e-12
-5.99743e-12
-8.59068e-13
-6.5099e-12
1.50017e-12
-6.24498e-12
4.10222e-12
-5.21382e-12
6.44161e-12
-3.58687e-12
8.03099e-12
-1.62322e-12
8.4669e-12
3.60385e-13
7.58957e-12
2.07383e-12
5.50193e-12
3.26161e-12
2.57807e-12
3.80436e-12
-6.69638e-13
3.71839e-12
-3.66926e-12
3.13088e-12
-5.96328e-12
2.22557e-12
-7.18607e-12
1.22464e-12
-7.10198e-12
3.81345e-13
-5.51579e-12
-2.36693e-12
-4.45844e-13
-1.30965e-12
-1.53189e-12
-2.07146e-12
-2.8878e-12
-2.00624e-12
-4.20615e-12
-1.24457e-12
-5.2326e-12
1.67386e-13
-5.72204e-12
1.98963e-12
-5.53721e-12
3.9174e-12
-4.6745e-12
5.57892e-12
-3.30181e-12
6.65832e-12
-1.63707e-12
6.80218e-12
4.0758e-14
5.91176e-12
1.4952e-12
4.04751e-12
2.49299e-12
1.58031e-12
2.95484e-12
-1.13147e-12
2.8877e-12
-3.6021e-12
2.41675e-12
-5.49231e-12
1.69123e-12
-6.46053e-12
9.07736e-13
-6.31846e-12
2.72124e-13
-4.88016e-12
-2.0948e-12
-3.27832e-13
-9.81817e-13
-1.18913e-12
-1.21016e-12
-2.29564e-12
-8.99728e-13
-3.37071e-12
-1.69508e-13
-4.24405e-12
1.04073e-12
-4.67868e-12
2.42426e-12
-4.56349e-12
3.80222e-12
-3.87153e-12
4.88696e-12
-2.8002e-12
5.587e-12
-1.49572e-12
5.49772e-12
-1.95819e-13
4.61187e-12
9.58752e-13
2.89295e-12
1.74127e-12
7.97798e-13
2.11241e-12
-1.50259e-12
2.05526e-12
-3.54494e-12
1.70945e-12
-5.14648e-12
1.15819e-12
-5.90926e-12
6.02363e-13
-5.76262e-12
1.70146e-13
-4.44792e-12
-1.92464e-12
-2.35154e-13
-7.46667e-13
-8.1286e-13
-6.32463e-13
-1.61979e-12
-9.28006e-14
-2.38955e-12
6.00245e-13
-3.10887e-12
1.76005e-12
-3.45128e-12
2.76667e-12
-3.38538e-12
3.73633e-12
-2.81258e-12
4.31417e-12
-2.04487e-12
4.81929e-12
-1.09793e-12
4.55078e-12
-2.13706e-13
3.72766e-12
6.31102e-13
2.04815e-12
1.17785e-12
2.51066e-13
1.44423e-12
-1.76896e-12
1.3708e-12
-3.4715e-12
1.12491e-12
-4.90057e-12
6.98844e-13
-5.48317e-12
3.30973e-13
-5.39473e-12
8.45857e-14
-4.20151e-12
-1.84005e-12
-1.31571e-13
-6.15102e-13
-4.41558e-13
-3.22482e-13
-9.98338e-13
4.63974e-13
-1.45065e-12
1.05255e-12
-1.9004e-12
2.2098e-12
-2.00213e-12
2.8684e-12
-2.01107e-12
3.74527e-12
-1.42065e-12
3.72375e-12
-9.96435e-13
4.39509e-12
-3.37718e-13
3.89207e-12
1.2497e-13
3.26498e-12
6.68271e-13
1.50486e-12
7.74569e-13
1.44781e-13
1.05022e-12
-2.0446e-12
9.19125e-13
-3.34038e-12
7.52393e-13
-4.73382e-12
3.99228e-13
-5.12999e-12
1.34674e-13
-5.13015e-12
1.41178e-14
-4.08093e-12
-1.82592e-12
-2.07309e-13
-4.07796e-13
1.59899e-13
-6.89692e-13
6.70608e-14
5.56811e-13
9.92072e-14
1.0204e-12
-2.68976e-13
2.57799e-12
-1.34406e-13
2.73383e-12
-4.07608e-13
4.01847e-12
2.88114e-13
3.02803e-12
5.09254e-13
4.17396e-12
8.02294e-13
3.59904e-12
6.19396e-13
3.44789e-12
9.1236e-13
1.21191e-12
9.90397e-13
6.67603e-14
1.29254e-12
-2.34672e-12
9.34664e-13
-2.98248e-12
6.31223e-13
-4.43036e-12
1.62371e-13
-4.66111e-12
-3.48156e-14
-4.93293e-12
-1.68898e-15
-4.11403e-12
-1.82759e-12
5.35351e-13
-9.43145e-13
7.55486e-13
-9.09824e-13
3.9603e-13
9.16271e-13
1.31573e-12
1.00707e-13
1.63947e-12
2.25426e-12
1.66691e-12
2.7064e-12
1.36099e-12
4.32439e-12
2.09214e-12
2.2969e-12
2.75473e-12
3.51138e-12
2.54872e-12
3.80506e-12
1.78523e-12
4.2114e-12
1.66003e-12
1.33713e-12
9.78327e-13
7.4848e-13
1.41603e-12
-2.78439e-12
9.35215e-13
-2.50164e-12
5.03268e-13
-3.99839e-12
-2.81485e-13
-3.87633e-12
-2.68814e-13
-4.94558e-12
1.23933e-13
-4.50675e-12
-1.70365e-12
4.31449e-12
-5.25756e-12
1.83411e-12
1.57057e-12
-1.63777e-12
4.38814e-12
3.17535e-12
-4.71232e-12
7.57308e-12
-2.14346e-12
4.56114e-12
5.71834e-12
1.89524e-12
6.9903e-12
5.58932e-12
-1.39713e-12
7.8326e-12
1.2679e-12
6.01478e-12
5.6229e-12
2.96722e-12
7.25895e-12
3.46325e-12
8.41112e-13
3.51982e-12
6.91904e-13
2.88129e-12
-2.14585e-12
2.15639e-12
-1.77674e-12
1.42003e-12
-3.26199e-12
-3.13879e-13
-2.14239e-12
7.63828e-14
-5.33582e-12
4.92008e-13
-4.92235e-12
-1.21163e-12
2.69184e-11
-3.21702e-11
9.17173e-13
2.7556e-11
-2.09182e-11
2.62153e-11
8.14257e-12
-3.37677e-11
2.51465e-11
-1.9146e-11
2.86966e-12
2.79849e-11
-1.10369e-11
2.08948e-11
1.21984e-11
-2.46312e-11
2.39132e-11
-1.04446e-11
6.95832e-12
2.25752e-11
-3.84694e-12
1.80555e-11
8.33231e-12
-1.13381e-11
1.07432e-11
-1.71646e-12
1.90212e-12
6.69015e-12
-9.21897e-13
1.02046e-12
4.25335e-12
-8.43631e-12
7.62124e-13
1.34886e-12
-2.10988e-12
-2.46337e-12
-1.06275e-12
-5.96981e-12
-2.27429e-12
8.40463e-11
-6.60253e-11
-2.45815e-12
6.46523e-11
-7.58656e-11
5.61748e-11
1.1999e-11
-6.73629e-11
6.2297e-11
-3.8507e-11
-7.14616e-12
5.47043e-11
-4.62449e-11
3.34131e-11
2.78149e-11
-5.36548e-11
5.51972e-11
-2.06902e-11
4.09777e-12
4.12351e-11
-2.09382e-11
2.36326e-11
2.38943e-11
-3.0658e-11
2.89303e-11
-3.68192e-12
2.59328e-12
1.87397e-11
-1.34602e-12
2.81039e-12
1.91697e-11
-1.58518e-11
6.64914e-12
7.9632e-12
-2.56429e-12
4.11225e-12
1.60205e-12
-5.3047e-12
-2.05626e-13
1.39474e-11
-2.80746e-12
-3.01117e-12
1.93791e-12
-1.30215e-11
1.1543e-12
2.27252e-12
-2.57053e-12
1.04039e-11
-1.44964e-12
-6.94276e-12
1.61622e-12
-8.96529e-12
3.97673e-14
5.27172e-12
-1.27586e-12
9.55222e-12
-7.40085e-13
-3.63977e-12
9.14517e-13
-4.6741e-12
0
5.12762e-12
-4.5206e-13
8.36312e-12
-5.92054e-13
-1.31513e-13
2.77166e-13
-7.1793e-13
0
4.67803e-12
-4.59517e-13
5.21952e-12
0
1.17164e-13
4.27882e-14
-6.90439e-13
-4.18971e-14
-1.07837e-13
-1.47442e-12
-1.93749e-14
-1.58573e-13
0
6.85736e-13
0
-1.37828e-14
-4.32811e-14
-9.3128e-13
-2.37742e-14
2.22216e-13
0
2.80621e-13
0
-1.27257e-14
-1.91641e-14
-2.87575e-13
-3.51183e-14
2.61e-13
0
1.29115e-13
0
-7.50415e-17
-6.89012e-15
-1.89325e-14
-1.05026e-14
1.66165e-13
0
1.73827e-14
0
-1.697e-15
-2.19629e-15
1.04268e-14
-7.74502e-16
3.82507e-14
0
1.06985e-16
0
0
-1.00667e-14
0
-2.14272e-14
2.17614e-16
9.64242e-16
-3.85637e-15
-5.74482e-15
-4.5883e-16
-1.0015e-15
-4.10118e-16
-1.69246e-14
2.64012e-16
6.38919e-15
-3.2158e-16
-1.223e-15
-6.30774e-17
-3.63287e-16
-3.03866e-16
3.92939e-15
0
2.36314e-14
-2.4982e-15
5.66355e-17
0
4.46314e-15
-3.00247e-15
1.78601e-15
0
6.35706e-15
0
5.00349e-17
0
6.62214e-16
0
1.35594e-16
0
0
0
0
-1.09369e-17
0
2.19372e-16
0
9.82873e-18
-8.15053e-19
-3.18969e-18
-3.02837e-18
-1.74263e-16
-7.44189e-18
1.80115e-16
1.24584e-18
1.59497e-18
-3.69965e-18
3.89935e-20
-4.8288e-19
-1.10648e-17
-6.24785e-18
3.468e-17
4.37461e-20
5.15921e-18
-3.46465e-18
7.98269e-19
-1.47583e-19
1.94196e-17
-1.10689e-17
1.65621e-17
0
2.05371e-17
0
4.18002e-19
0
2.22142e-18
0
-1.82346e-19
0
5.32136e-22
0
0
1.46214e-19
0
2.56675e-18
0
1.97918e-18
0
-2.20703e-19
-5.484e-21
-4.32386e-19
-5.19653e-23
8.13481e-19
-1.012e-27
1.11836e-18
-6.39178e-23
2.12932e-20
-9.22306e-24
-2.6614e-20
-3.80546e-22
2.30448e-20
-1.46911e-22
1.58626e-19
-5.99429e-21
2.42533e-20
-1.87336e-22
-3.65747e-22
-2.16037e-19
5.75052e-20
0
3.31402e-19
0
-1.54697e-20
0
-4.01038e-20
0
-3.60598e-20
0
1.97846e-20
0
0
3.01047e-21
0
1.40549e-20
0
5.20975e-21
0
1.69196e-23
-1.41806e-24
6.20118e-26
-6.86095e-24
1.58133e-26
-2.86235e-26
1.80001e-25
-3.58353e-23
6.17749e-26
-4.17716e-24
-1.25126e-25
-3.8454e-22
3.21313e-25
-2.28717e-22
3.08238e-24
-2.31175e-22
-4.15456e-22
-1.166e-22
-2.37593e-22
-1.56288e-22
-6.92119e-22
0
-8.25275e-23
0
-1.32508e-21
2.71545e-23
-1.51585e-21
0
-8.39247e-22
0
-2.51269e-23
0
0
7.76698e-24
2.76255e-27
4.94485e-23
0
5.66655e-23
6.54237e-26
6.46333e-25
-1.35454e-26
2.97274e-24
-2.18484e-26
1.83921e-26
-1.20302e-27
8.55526e-24
-3.45668e-25
3.44106e-25
-3.16418e-24
-2.52466e-23
-9.42019e-24
-2.16219e-23
-6.74414e-24
-4.77332e-23
-4.33639e-24
-1.34013e-23
-6.92931e-24
-7.82793e-24
2.33493e-24
-5.89197e-23
7.69825e-24
-1.02247e-23
1.5665e-23
-1.26789e-22
1.06843e-23
-2.93874e-23
4.91932e-23
-9.34275e-24
7.32162e-24
-8.80994e-25
5.07191e-25
3.61189e-25
7.67082e-27
3.31972e-29
1.09943e-25
6.26024e-28
1.94931e-25
5.66805e-29
9.53263e-27
-3.1072e-28
1.3988e-26
-1.44152e-28
3.19475e-28
-1.2755e-28
1.36824e-25
-6.14949e-27
1.3921e-25
-1.40488e-25
-5.06977e-25
-5.71962e-25
-9.84522e-25
-1.08924e-24
-2.36952e-24
-1.79958e-24
-1.20587e-23
-1.44412e-24
-5.99514e-24
4.42018e-24
-6.08303e-24
5.47275e-24
-3.7638e-24
1.47347e-24
-8.36369e-24
3.43516e-24
-3.07774e-24
2.33013e-24
-5.80338e-26
8.54701e-25
-3.74648e-26
4.36716e-26
1.09451e-26
1.43823e-29
1.4128e-30
5.41924e-28
5.41208e-30
7.17022e-28
-2.89769e-30
6.17318e-29
-3.89444e-30
2.43592e-29
-5.5614e-30
1.9788e-29
-7.21002e-30
7.55885e-28
-3.09082e-29
6.19299e-28
-7.61226e-28
-4.92994e-26
-2.5102e-26
-2.55041e-25
-1.74547e-25
-1.00387e-24
-2.6564e-25
-1.46253e-24
-1.64223e-25
-9.27366e-25
1.24318e-25
-2.403e-25
1.32582e-25
-1.80837e-25
3.55168e-26
-2.27764e-25
4.33867e-26
-1.11219e-25
4.03466e-26
-1.43908e-26
1.94818e-26
-2.94123e-28
7.76973e-27
1.40927e-27
8.81673e-31
1.71631e-30
1.23052e-30
3.80677e-31
3.17783e-31
2.51638e-31
7.39562e-31
-6.10254e-30
-2.24269e-27
-1.46193e-26
-6.29409e-26
-6.20625e-26
-2.35463e-26
-9.10895e-27
-6.99748e-27
-5.67449e-27
-2.22976e-27
-4.76684e-28
-1.27452e-28
)
;

boundaryField
{
    top
    {
        type            calculated;
        value           nonuniform List<scalar> 
20
(
4.91301e-31
1.68393e-30
0
0
0
0
0
0
0
0
0
0
4.53483e-26
3.01912e-26
1.92473e-26
1.91638e-26
1.7598e-26
6.2652e-27
1.80181e-27
4.88509e-28
)
;
    }
    left
    {
        type            calculated;
        value           uniform 0;
    }
    right
    {
        type            calculated;
        value           uniform 0;
    }
    bottom
    {
        type            calculated;
        value           nonuniform List<scalar> 
20
(
0
0
0
1.97213e-31
0
-3.94426e-31
0
0
0
0
7.88852e-31
0
0
0
0
0
0
0
0
0
)
;
    }
    front
    {
        type            empty;
        value           nonuniform List<scalar> 0();
    }
    back
    {
        type            empty;
        value           nonuniform List<scalar> 0();
    }
    frontAndBack
    {
        type            empty;
        value           nonuniform List<scalar> 0();
    }
}


// ************************************************************************* //
