/*--------------------------------*- C++ -*----------------------------------*\
  =========                 |
  \\      /  F ield         | OpenFOAM: The Open Source CFD Toolbox
   \\    /   O peration     | Website:  https://openfoam.org
    \\  /    A nd           | Version:  10
     \\/     M anipulation  |
\*---------------------------------------------------------------------------*/
FoamFile
{
    format      ascii;
    class       volScalarField;
    location    "0.07";
    object      alpha.water;
}
// * * * * * * * * * * * * * * * * * * * * * * * * * * * * * * * * * * * * * //

dimensions      [0 0 0 0 0 0 0];

internalField   nonuniform List<scalar> 
800
(
0.99999
0.999989
0.999989
0.999988
0.999987
0.999988
0.999989
0.999989
0.999989
0.999989
0.999989
0.999989
0.999988
0.999988
0.999989
0.999989
0.999989
0.999986
0.999988
0.999994
0.999989
0.999988
0.999986
0.999986
0.999986
0.999987
0.999989
0.999987
0.999986
0.999988
0.999989
0.999987
0.999986
0.999986
0.999988
0.999989
0.999986
0.999986
0.999987
0.999994
0.999989
0.999986
0.999986
0.999986
0.999986
0.999986
0.999986
0.999986
0.999986
0.999986
0.999986
0.999986
0.999986
0.999987
0.999988
0.999987
0.999986
0.999986
0.999986
0.999994
0.999986
0.999986
0.999986
0.999986
0.999986
0.999986
0.999987
0.999986
0.999986
0.999986
0.999986
0.999986
0.999986
0.999989
0.999987
0.999986
0.999986
0.999986
0.999989
0.999994
0.999989
0.99999
0.999988
0.999986
0.999986
0.999986
0.999989
0.999987
0.999986
0.999986
0.999986
0.999986
0.999986
0.999991
0.999986
0.999986
0.999986
0.999986
0.999991
0.999995
0.99999
0.99999
0.99999
0.999986
0.999986
0.999986
0.99999
0.99999
0.999987
0.999986
0.999986
0.999986
0.999987
0.999991
0.999987
0.999986
0.999986
0.999986
0.99999
0.999995
0.99999
0.999989
0.999986
0.999986
0.999986
0.999987
0.99999
0.99999
0.999986
0.999986
0.999986
0.999987
0.999991
0.999991
0.999988
0.999986
0.999986
0.999986
0.999989
0.999995
0.99999
0.999986
0.999986
0.999986
0.999986
0.999988
0.99999
0.99999
0.999986
0.999986
0.999986
0.999986
0.999991
0.999991
0.999987
0.999986
0.999986
0.999986
0.999992
0.999995
0.999986
0.999986
0.999986
0.999987
0.999991
0.999993
0.99999
0.999987
0.999986
0.999988
0.999987
0.999986
0.999991
0.999991
0.999991
0.999986
0.999986
0.999991
0.999992
0.999995
0.999988
0.999986
0.999989
0.999994
0.999994
0.999993
0.999987
0.999987
0.99999
0.99999
0.99999
0.99999
0.999987
0.999989
0.999994
0.999994
0.999992
0.999993
0.99999
0.999995
0.999993
0.999993
0.999994
0.999994
0.999994
0.999991
0.999987
0.999987
0.99999
0.99999
0.99999
0.99999
0.999987
0.999987
0.999992
0.999996
0.999996
0.999993
0.99999
0.999996
0.999994
0.999995
0.999994
0.99999
0.99999
0.99999
0.999987
0.999987
0.99999
0.99999
0.99999
0.999989
0.999987
0.999987
0.999991
0.999991
0.999996
0.999991
0.999991
0.999996
0.999993
0.999996
0.999993
0.99999
0.99999
0.999991
0.999991
0.999987
0.999988
0.99999
0.99999
0.999987
0.999987
0.999992
0.999991
0.999991
0.999996
0.999991
0.999993
0.999997
0.999993
0.999996
0.999997
0.999997
0.99999
0.999992
0.999995
0.999987
0.999987
0.999989
0.999988
0.999987
0.999989
0.999995
0.999991
0.999992
0.999996
0.999993
0.999993
0.999997
0.999995
0.999995
0.999997
0.999997
0.999992
0.999992
0.999995
0.999993
0.999987
0.999987
0.999987
0.999987
0.999995
0.999995
0.999991
0.999994
0.999995
0.999997
0.999997
0.999997
0.999996
0.999995
0.999997
0.999996
0.999994
0.999992
0.999995
0.999995
0.999987
0.999987
0.999987
0.999989
0.999995
0.999995
0.999991
0.999995
0.999997
0.999997
0.999997
0.999998
0.999997
0.999998
0.999999
0.999997
0.999996
0.999992
0.999995
0.999997
0.999993
0.999989
0.99999
0.999996
0.999996
0.999995
0.999995
0.999997
0.999998
0.999998
0.999998
0.999999
0.999997
0.999998
0.999999
0.999999
0.999997
0.999994
0.999994
0.999997
0.999998
0.999997
0.999997
0.999998
0.999997
0.999995
0.999997
0.999998
0.999999
0.999999
0.999999
0.999999
0.999998
0.999999
0.999999
0.999999
0.999998
0.999997
0.999996
0.999997
0.999998
0.999999
0.999998
0.999998
0.999998
0.999998
0.999998
0.999999
1
1
1
1
0.999999
1
1
1
0.999999
0.999998
0.999999
0.999999
0.999999
0.999999
0.999999
0.999999
0.999999
0.999999
0.999999
1
1
1
1
1
1
1
1
1
1
1
1
1
1
1
1
1
1
1
1
1
1
1
1
1
1
1
1
1
1
1
1
1
1
1
1
1
1
1
1
1
1
1
1
1
1
1
1
1
1
1
1
1
1
1
1
1
1
1
1
1
1
1
1
1
1
1
1
1
1
1
1
1
1
1
1
1
1
1
1
1
1
1
1
1
1
1
1
1
1
1
1
1
1
1
1
1
1
1
1
1
1
1
1
1
1
1
1
1
1
1
1
1
1
1
1
1
1
1
1
1
1
1
1
1
1
1
1
1
1
1
1
1
1
1
1
1
1
1
1
1
1
1
1
1
1
1
1
1
1
1
1
1
1
1
1
1
0.999998
1
0.999993
1
0.999997
1
1
1
0.999999
1
1
0.999999
1
1
1
1
0.999999
1
1
1
0.999997
1
0.999999
1
0.999997
0.999999
0.999999
1
0.867667
0.877769
0.875368
0.86753
0.868072
0.877265
0.871643
0.867203
0.869063
0.875398
0.869973
0.868541
0.867881
0.871291
0.866514
0.868843
0.868093
0.866485
0.862775
0.865658
0.129498
0.139926
0.140835
0.121279
0.129025
0.129639
0.134355
0.117097
0.130457
0.126806
0.133673
0.12132
0.13454
0.127795
0.133462
0.129152
0.137363
0.129132
0.129501
0.131902
2.95079e-05
0.000189711
0.000244941
2.71085e-05
0.000235425
0.000142393
0.000307721
1.50019e-05
0.000279329
0.000120852
0.000276835
1.2335e-05
0.000117738
5.13896e-05
0.000160878
5.12638e-06
0.000121365
1.37441e-05
3.6225e-06
1.73758e-07
2.4524e-05
2.24381e-05
0.000154458
1.73908e-05
0.000231571
1.79229e-05
0.000290281
1.06722e-05
0.000274077
2.07001e-05
0.000234312
1.06844e-05
0.000182792
2.25643e-05
0.000119448
4.48387e-06
5.34672e-05
7.24036e-06
3.55342e-06
1.5456e-07
1.26096e-06
8.11651e-08
7.44836e-08
8.38815e-10
8.94552e-08
3.49246e-08
1.52546e-08
2.77684e-10
1.52546e-08
1.80669e-07
7.0014e-08
9.34591e-09
6.1285e-07
4.42093e-07
1.45344e-06
2.47512e-08
4.80011e-07
1.49361e-07
1.67201e-07
4.81222e-08
3.63902e-08
1.56291e-08
7.43765e-08
5.05836e-11
8.82435e-08
1.01829e-15
4.68714e-08
1.49273e-10
7.14355e-08
1.17691e-13
1.04152e-08
1.37353e-11
9.11597e-08
4.7567e-09
4.15555e-08
1.37556e-09
2.13876e-08
4.99853e-09
1.20556e-08
5.04887e-09
1.0519e-10
1.24761e-10
3.88723e-10
1.31296e-14
1.01829e-15
1.02034e-15
1.01829e-15
1.44292e-14
1.65187e-14
8.41986e-14
1.17691e-13
1.33268e-11
4.11275e-10
2.4967e-11
1.30218e-10
2.54231e-11
1.73506e-10
1.81047e-10
7.38934e-11
4.11681e-12
3.04133e-13
4.33221e-13
3.89483e-12
6.20414e-14
3.6241e-13
1.70926e-15
1.14239e-12
1.49228e-13
1.2071e-11
1.65556e-11
1.71198e-11
1.59618e-11
1.88084e-12
9.733e-13
8.93051e-12
1.63815e-12
1.85652e-11
2.05805e-12
8.85199e-13
5.57371e-13
1.67771e-16
2.98098e-15
1.86833e-14
1.1097e-15
1.90325e-15
4.46794e-17
1.66445e-14
1.12161e-13
2.47377e-13
2.70689e-13
4.2991e-13
7.76062e-13
1.92137e-12
8.16383e-13
8.58977e-13
5.69167e-13
1.23046e-12
3.10906e-13
9.78137e-15
2.90774e-14
6.03665e-18
1.10282e-16
1.29407e-16
2.99218e-17
7.10027e-18
4.83644e-18
1.70432e-16
3.74566e-15
1.77054e-14
4.97036e-14
1.28464e-13
2.38734e-13
2.57005e-13
1.00035e-13
3.15129e-14
2.82407e-14
3.52746e-14
1.46051e-14
2.77205e-15
2.32399e-16
1.29586e-18
1.24051e-18
9.16614e-19
2.50176e-19
1.99002e-19
1.87747e-19
6.31167e-19
1.50229e-17
5.78229e-16
5.96573e-15
1.43696e-14
2.52538e-14
1.08733e-14
3.02309e-15
1.33398e-15
1.08105e-15
8.56007e-16
3.32925e-16
1.48583e-16
1.20169e-16
)
;

boundaryField
{
    top
    {
        type            inletOutlet;
        inletValue      uniform 0;
        value           nonuniform List<scalar> 
20
(
1.29586e-18
1.24051e-18
0
0
0
0
0
0
0
0
0
0
1.08733e-14
3.02309e-15
1.33398e-15
1.08105e-15
8.56007e-16
3.32925e-16
1.48583e-16
1.20169e-16
)
;
    }
    left
    {
        type            zeroGradient;
    }
    right
    {
        type            zeroGradient;
    }
    bottom
    {
        type            zeroGradient;
    }
    front
    {
        type            empty;
    }
    back
    {
        type            empty;
    }
    frontAndBack
    {
        type            empty;
    }
}


// ************************************************************************* //
