/*--------------------------------*- C++ -*----------------------------------*\
  =========                 |
  \\      /  F ield         | OpenFOAM: The Open Source CFD Toolbox
   \\    /   O peration     | Website:  https://openfoam.org
    \\  /    A nd           | Version:  10
     \\/     M anipulation  |
\*---------------------------------------------------------------------------*/
FoamFile
{
    format      ascii;
    class       volScalarField;
    location    "0.07";
    object      p;
}
// * * * * * * * * * * * * * * * * * * * * * * * * * * * * * * * * * * * * * //

dimensions      [1 -1 -2 0 0 0 0];

internalField   nonuniform List<scalar> 
800
(
14.2237
14.2235
14.2235
14.2215
14.2172
14.2127
14.2086
14.2042
14.2003
14.198
14.1973
14.1978
14.1991
14.2015
14.2059
14.2093
14.2106
14.2124
14.2098
14.2126
13.731
13.7315
13.7319
13.7302
13.7272
13.7228
13.7198
13.7149
13.7127
13.7103
13.71
13.7092
13.711
13.7136
13.715
13.7188
13.7187
13.7198
13.7183
13.7207
13.2405
13.2428
13.2424
13.2407
13.2379
13.2344
13.2315
13.2275
13.2246
13.2222
13.2211
13.2212
13.2222
13.2235
13.2258
13.2269
13.2285
13.229
13.2281
13.2299
12.7543
12.7549
12.7542
12.7528
12.7498
12.7462
12.7429
12.7395
12.7368
12.7347
12.7335
12.7332
12.7335
12.7364
12.7365
12.7384
12.7396
12.7398
12.7386
12.7403
12.2664
12.2689
12.2681
12.2661
12.2634
12.2597
12.2595
12.2527
12.2498
12.2479
12.2466
12.2461
12.2465
12.2526
12.2493
12.251
12.2522
12.2524
12.2516
12.2526
11.784
11.7868
11.7876
11.7824
11.7793
11.7754
11.7739
11.771
11.7647
11.7625
11.761
11.7602
11.7605
11.7667
11.763
11.7653
11.7669
11.7673
11.7658
11.7667
11.3033
11.3037
11.3036
11.3014
11.2977
11.2925
11.291
11.2871
11.2818
11.2792
11.2775
11.2764
11.279
11.2808
11.2796
11.2821
11.284
11.2846
11.2823
11.2827
10.8248
10.8258
10.8256
10.8229
10.8186
10.8127
10.81
10.8055
10.8016
10.7982
10.7964
10.7955
10.7967
10.7986
10.798
10.8016
10.8035
10.804
10.8014
10.8012
10.3512
10.3515
10.3505
10.347
10.342
10.3402
10.3322
10.3271
10.3233
10.3189
10.3169
10.3173
10.3163
10.3176
10.3181
10.3237
10.3256
10.3231
10.3226
10.3222
9.87679
9.87971
9.8779
9.8769
9.87328
9.86549
9.85911
9.85396
9.84677
9.84402
9.84152
9.84037
9.84193
9.83985
9.84553
9.8465
9.84623
9.84654
9.84697
9.8449
9.40648
9.40686
9.40649
9.40585
9.402
9.39299
9.38867
9.38269
9.37545
9.37183
9.36904
9.36725
9.36869
9.36904
9.36844
9.37438
9.37612
9.37152
9.37375
9.36953
8.93874
8.94063
8.93695
8.93601
8.9306
8.92422
8.92082
8.91407
8.90664
8.90291
8.89959
8.89674
8.89751
8.89815
8.89642
8.89649
8.90224
8.9008
8.89879
8.89783
8.47355
8.47484
8.4698
8.46904
8.46491
8.45851
8.45274
8.44693
8.44121
8.43704
8.43301
8.4308
8.42755
8.427
8.42686
8.42561
8.42806
8.42778
8.42384
8.42368
8.01049
8.00766
8.00606
8.00231
8.00037
7.99442
7.99222
7.98205
7.97762
7.972
7.9673
7.96521
7.95993
7.96147
7.95769
7.95324
7.95229
7.94946
7.9491
7.94823
7.54459
7.54274
7.54066
7.53674
7.53397
7.53026
7.5277
7.51836
7.51452
7.50965
7.50498
7.50007
7.49585
7.49198
7.48807
7.47933
7.47638
7.47397
7.47192
7.47237
7.08027
7.0775
7.0742
7.07058
7.06702
7.06701
7.06108
7.0549
7.05121
7.04663
7.04055
7.03379
7.02652
7.02051
7.0149
7.00472
6.9994
6.99596
6.99434
6.99493
6.61626
6.61235
6.60879
6.60393
6.60011
6.60042
6.59324
6.58961
6.58162
6.5788
6.57134
6.56265
6.55456
6.54671
6.53587
6.52693
6.52048
6.51576
6.51403
6.51435
6.15152
6.14656
6.14178
6.13668
6.13137
6.12857
6.12474
6.11778
6.11214
6.10437
6.09702
6.08898
6.0788
6.06872
6.05641
6.04604
6.03818
6.03233
6.02954
6.03004
5.68619
5.68048
5.67415
5.66707
5.66023
5.6542
5.64835
5.64208
5.63554
5.62794
5.61917
5.60916
5.59747
5.58508
5.57268
5.56131
5.55217
5.5454
5.54179
5.54174
5.22144
5.21478
5.2063
5.19641
5.18645
5.1771
5.16841
5.16058
5.15315
5.14475
5.13509
5.12401
5.11152
5.09847
5.08529
5.07321
5.06284
5.05478
5.05002
5.04914
4.75846
4.75046
4.73893
4.72526
4.7109
4.69727
4.68513
4.67464
4.6652
4.6559
4.64575
4.63441
4.62188
4.60871
4.59538
4.58251
4.57063
4.56067
4.55406
4.55181
4.29935
4.28906
4.27317
4.25423
4.23396
4.2146
4.19771
4.18406
4.17291
4.16301
4.15289
4.142
4.13003
4.1173
4.10397
4.09017
4.07611
4.06315
4.05361
4.0492
3.84725
3.83296
3.81036
3.78412
3.75548
3.72836
3.7055
3.68875
3.67673
3.66741
3.65817
3.6485
3.63752
3.62551
3.61252
3.59794
3.58061
3.56256
3.54777
3.54009
3.4078
3.38515
3.35216
3.31735
3.27511
3.23707
3.20663
3.18766
3.17689
3.17039
3.16311
3.15561
3.1457
3.13402
3.12222
3.1078
3.08549
3.05801
3.03446
3.02225
2.98603
2.93919
2.88222
2.84811
2.78834
2.7366
2.69593
2.67787
2.67204
2.67315
2.66787
2.66323
2.6508
2.6409
2.63471
2.6259
2.59612
2.55023
2.51022
2.49212
2.62407
2.55383
2.47635
2.42342
2.30632
2.23584
2.17109
2.16231
2.16389
2.18444
2.18014
2.18308
2.1675
2.14536
2.15328
2.16539
2.1238
2.03729
1.96501
1.94615
2.18161
2.10582
1.98931
1.8936
1.72619
1.64904
1.62027
1.59082
1.60681
1.69466
1.68301
1.66282
1.61081
1.60461
1.65806
1.74747
1.68911
1.50577
1.36692
1.38095
1.60384
2.23865
1.99501
1.24463
1.09051
1.57569
1.28439
0.794139
1.01235
1.5061
1.32908
1.07775
1.09243
1.17495
1.17994
1.47308
1.40109
0.913636
0.60755
0.842456
-0.677763
3.87713
3.15731
-1.40921
-1.00394
2.58616
1.18853
-1.69317
-0.396491
2.17563
1.01052
-0.421311
0.219523
0.953645
0.391057
1.06456
1.51221
0.0677371
-0.756541
0.311301
-5.81217
9.81056
7.69149
-7.23468
-4.83892
7.63417
3.19552
-6.69969
-2.03428
5.96043
1.59022
-3.10905
0.101708
2.16075
-0.639651
1.19677
3.66883
-0.376899
-2.99966
1.18766
-0.874289
1.55934
1.28129
-0.992392
-0.684607
1.01226
0.527964
-0.846322
-0.297173
0.75269
0.24521
-0.471449
0.0285917
0.297813
-0.103732
0.0979198
0.596953
-0.0279494
-0.391437
0.228991
0.0643351
-0.0121035
-0.00168199
0.0806133
0.0486749
-0.0167889
0.0109217
0.0505652
0.0187542
-0.0143908
0.00911134
0.0339584
0.00192596
0.00119701
0.0179811
0.0128659
-0.0108967
0.0188753
0.0315173
-5.15364e-06
0.0155938
0.00395069
0.00877009
0.0567672
0.0186565
-0.00406441
0.0275533
0.030313
0.00882293
-0.00871336
-0.00060363
0.044459
-0.00529121
0.00714248
-0.00165615
0.0316224
0.00134093
0.0123085
0.015082
0.0112995
0.0121048
0.00972268
0.0155992
0.0262722
0.00994208
0.00280851
0.00229204
0.0125902
0.00429033
-0.000642552
0.00191176
0.0143666
0.0053542
0.00501554
0.00462681
0.0132766
0.00975327
0.0102711
0.0120678
0.0109045
0.0119551
0.00972728
0.0121648
0.0163495
0.0106346
0.00462491
0.00421943
0.00800169
0.00505336
0.00215716
0.00389285
0.00779966
0.00577428
0.00484779
0.00621923
0.00874545
0.00839753
0.00879997
0.0096907
0.00911228
0.00874469
0.00871083
0.00939578
0.0101943
0.00765812
0.00526511
0.0044625
0.00508049
0.00402337
0.00325337
0.00377422
0.00519921
0.00478378
0.00477031
0.00537083
0.0065449
0.00681277
0.00715003
0.00742152
0.00721435
0.00647526
0.00637304
0.00670845
0.00693606
0.00570972
0.00434975
0.00370429
0.00383498
0.00332114
0.00288877
0.00313746
0.00388109
0.00386615
0.00389952
0.00429449
0.00497011
0.00522154
0.00538476
0.00550877
0.00542694
0.00432486
0.00428129
0.00446409
0.0045257
0.00394715
0.00321106
0.00278801
0.0027247
0.00247071
0.00225752
0.00237949
0.00273809
0.00281808
0.00287771
0.00310762
0.00344924
0.00362939
0.00372946
0.00377231
0.00372095
0.00233276
0.00236934
0.00256189
0.00258175
0.00232345
0.00197207
0.00173278
0.00164371
0.001524
0.00143765
0.00150412
0.00169385
0.00174097
0.00174412
0.00182924
0.00196862
0.00205601
0.0020971
0.00209827
0.00206632
0.000681422
0.0007249
0.000844425
0.000850333
0.00077169
0.000662226
0.000583221
0.000548899
0.000515056
0.000497945
0.000543396
0.000666323
0.000668044
0.000609119
0.000595605
0.000609104
0.000613773
0.000608189
0.000597831
0.000585663
)
;

boundaryField
{
    top
    {
        type            calculated;
        value           nonuniform List<scalar> 
20
(
-1.20951e-06
-1.59779e-06
-1.96879e-06
-2.99485e-06
-4.42061e-06
-5.98901e-06
-7.44322e-06
-7.58588e-06
-6.12478e-06
-3.76294e-06
-1.63501e-06
-3.26752e-07
0
0
0
0
0
0
0
0
)
;
    }
    left
    {
        type            calculated;
        value           nonuniform List<scalar> 
40
(
14.2237
13.731
13.2405
12.7543
12.2664
11.784
11.3033
10.8248
10.3512
9.87679
9.40648
8.93874
8.47355
8.01049
7.54459
7.08027
6.61626
6.15152
5.68619
5.22144
4.75846
4.29935
3.84725
3.4078
2.98603
2.62407
2.18161
1.60384
-0.677763
-5.81217
-0.874289
0.0643351
0.0155938
0.0121048
0.0119551
0.00874469
0.00647526
0.00432486
0.00233276
0.000681422
)
;
    }
    right
    {
        type            calculated;
        value           nonuniform List<scalar> 
40
(
14.2126
13.7207
13.2299
12.7403
12.2526
11.7667
11.2827
10.8012
10.3222
9.8449
9.36953
8.89783
8.42368
7.94823
7.47237
6.99493
6.51435
6.03004
5.54174
5.04914
4.55181
4.0492
3.54009
3.02225
2.49212
1.94615
1.38095
0.842456
0.311301
1.18766
0.228991
-5.15364e-06
0.0112995
0.0109045
0.00911228
0.00721435
0.00542694
0.00372095
0.00206632
0.000585663
)
;
    }
    bottom
    {
        type            calculated;
        value           nonuniform List<scalar> 
20
(
14.469
14.4687
14.4687
14.4666
14.4623
14.4577
14.4535
14.449
14.445
14.4427
14.442
14.4425
14.4439
14.4465
14.4509
14.4543
14.4558
14.4576
14.455
14.4578
)
;
    }
    front
    {
        type            empty;
    }
    back
    {
        type            empty;
    }
    frontAndBack
    {
        type            empty;
    }
}


// ************************************************************************* //
