/*--------------------------------*- C++ -*----------------------------------*\
  =========                 |
  \\      /  F ield         | OpenFOAM: The Open Source CFD Toolbox
   \\    /   O peration     | Website:  https://openfoam.org
    \\  /    A nd           | Version:  10
     \\/     M anipulation  |
\*---------------------------------------------------------------------------*/
FoamFile
{
    format      ascii;
    class       volScalarField;
    location    "0.07";
    object      p_rgh;
}
// * * * * * * * * * * * * * * * * * * * * * * * * * * * * * * * * * * * * * //

dimensions      [1 -1 -2 0 0 0 0];

internalField   nonuniform List<scalar> 
800
(
14.469
14.4688
14.4688
14.4667
14.4624
14.4579
14.4539
14.4494
14.4455
14.4433
14.4425
14.443
14.4443
14.4468
14.4511
14.4545
14.4559
14.4577
14.4551
14.4578
14.4668
14.4673
14.4677
14.4659
14.4629
14.4585
14.4555
14.4507
14.4484
14.4461
14.4457
14.4449
14.4468
14.4494
14.4507
14.4546
14.4545
14.4556
14.4541
14.4564
14.4667
14.469
14.4686
14.4669
14.4641
14.4607
14.4577
14.4538
14.4508
14.4484
14.4473
14.4474
14.4485
14.4497
14.452
14.4532
14.4547
14.4553
14.4543
14.4561
14.4711
14.4717
14.4709
14.4695
14.4665
14.4629
14.4597
14.4562
14.4535
14.4514
14.4502
14.4499
14.4503
14.4531
14.4532
14.4551
14.4563
14.4565
14.4553
14.457
14.4736
14.4762
14.4753
14.4733
14.4706
14.4669
14.4667
14.4599
14.457
14.4551
14.4538
14.4533
14.4537
14.4599
14.4566
14.4582
14.4595
14.4596
14.4589
14.4599
14.4818
14.4845
14.4854
14.4801
14.477
14.4732
14.4716
14.4687
14.4624
14.4602
14.4587
14.4579
14.4582
14.4645
14.4607
14.463
14.4646
14.465
14.4635
14.4645
14.4915
14.4919
14.4918
14.4896
14.4859
14.4807
14.4793
14.4753
14.47
14.4674
14.4657
14.4647
14.4672
14.4691
14.4679
14.4703
14.4722
14.4728
14.4706
14.471
14.5035
14.5045
14.5043
14.5016
14.4973
14.4914
14.4888
14.4842
14.4803
14.4769
14.4751
14.4742
14.4754
14.4773
14.4767
14.4803
14.4822
14.4827
14.4801
14.4799
14.5204
14.5207
14.5197
14.5162
14.5112
14.5094
14.5014
14.4963
14.4925
14.4881
14.4861
14.4865
14.4855
14.4868
14.4873
14.4928
14.4948
14.4924
14.4919
14.4915
14.5365
14.5394
14.5376
14.5366
14.533
14.5252
14.5188
14.5136
14.5065
14.5037
14.5012
14.5001
14.5016
14.4995
14.5053
14.5062
14.5059
14.5063
14.5067
14.5046
14.5567
14.5571
14.5567
14.5561
14.5522
14.5432
14.5389
14.5329
14.5256
14.522
14.5192
14.5174
14.5189
14.5192
14.5186
14.5246
14.5263
14.5217
14.524
14.5198
14.5795
14.5814
14.5777
14.5767
14.5713
14.5649
14.5615
14.5547
14.5473
14.5436
14.5403
14.5374
14.5382
14.5388
14.5371
14.5372
14.543
14.5415
14.5395
14.5386
14.6048
14.6061
14.601
14.6002
14.5961
14.5897
14.5839
14.5781
14.5724
14.5682
14.5642
14.562
14.5587
14.5582
14.5581
14.5568
14.5593
14.559
14.555
14.5549
14.6322
14.6294
14.6278
14.624
14.622
14.6161
14.6139
14.6037
14.5993
14.5937
14.589
14.5869
14.5816
14.5832
14.5794
14.5749
14.574
14.5712
14.5708
14.57
14.6568
14.6549
14.6529
14.649
14.6462
14.6425
14.6399
14.6306
14.6267
14.6218
14.6171
14.6122
14.6081
14.6042
14.6003
14.5915
14.5886
14.5862
14.5841
14.5846
14.683
14.6802
14.6769
14.6733
14.6697
14.6697
14.6638
14.6576
14.6539
14.6493
14.6432
14.6365
14.6292
14.6232
14.6176
14.6074
14.6021
14.5987
14.5971
14.5977
14.7095
14.7056
14.702
14.6972
14.6933
14.6936
14.6865
14.6828
14.6748
14.672
14.6645
14.6559
14.6478
14.6399
14.6291
14.6202
14.6137
14.609
14.6073
14.6076
14.7353
14.7303
14.7255
14.7204
14.7151
14.7123
14.7084
14.7015
14.6959
14.6881
14.6807
14.6727
14.6625
14.6524
14.6401
14.6298
14.6219
14.6161
14.6133
14.6138
14.7604
14.7547
14.7484
14.7413
14.7345
14.7284
14.7226
14.7163
14.7098
14.7022
14.6934
14.6834
14.6717
14.6593
14.6469
14.6355
14.6264
14.6196
14.616
14.616
14.7862
14.7795
14.771
14.7612
14.7512
14.7418
14.7331
14.7253
14.7179
14.7095
14.6998
14.6888
14.6763
14.6632
14.65
14.638
14.6276
14.6195
14.6148
14.6139
14.8137
14.8057
14.7942
14.7805
14.7661
14.7525
14.7404
14.7299
14.7204
14.7112
14.701
14.6897
14.6771
14.664
14.6506
14.6378
14.6259
14.6159
14.6093
14.6071
14.8451
14.8348
14.8189
14.8
14.7797
14.7604
14.7435
14.7298
14.7187
14.7088
14.6986
14.6878
14.6758
14.6631
14.6497
14.6359
14.6219
14.6089
14.5994
14.595
14.8835
14.8692
14.8466
14.8204
14.7917
14.7646
14.7418
14.725
14.713
14.7037
14.6944
14.6848
14.6738
14.6618
14.6488
14.6342
14.6169
14.5988
14.584
14.5764
14.9346
14.9119
14.8789
14.8441
14.8019
14.7638
14.7334
14.7144
14.7037
14.6972
14.6899
14.6824
14.6725
14.6608
14.649
14.6346
14.6123
14.5848
14.5612
14.549
15.0033
14.9565
14.8995
14.8654
14.8056
14.7539
14.7132
14.6951
14.6893
14.6904
14.6851
14.6805
14.6681
14.6582
14.652
14.6432
14.6134
14.5675
14.5275
14.5094
15.1318
15.0616
14.9841
14.9312
14.8141
14.7436
14.6789
14.6701
14.6716
14.6922
14.6879
14.6908
14.6753
14.6531
14.661
14.6731
14.6316
14.545
14.4728
14.4539
15.1799
15.1041
14.9876
14.8919
14.7244
14.6473
14.6185
14.5891
14.6051
14.6929
14.6813
14.6611
14.6091
14.6029
14.6563
14.7457
14.6874
14.504
14.3652
14.3792
15.0926
15.7274
15.4838
14.7334
14.5793
15.0644
14.7731
14.2829
14.5011
14.9949
14.8178
14.5665
14.5812
14.6637
14.6686
14.9618
14.8898
14.4024
14.0963
14.3312
13.3015
17.8564
17.1366
12.57
12.9753
16.5654
15.1678
12.2861
13.5827
16.1549
14.9898
13.5579
14.1987
14.9329
14.3703
15.0438
15.4914
14.047
13.2227
14.2905
6.74467
22.5134
20.3597
5.32019
7.72378
20.3298
15.8098
5.85044
10.5427
18.629
14.1804
9.46041
12.6616
14.77
11.9005
13.7706
16.2318
12.1629
9.48647
13.7155
1.07606
3.66553
3.40106
0.835113
1.25867
2.96472
2.5509
0.918683
1.6675
2.6628
2.25795
1.35667
2.05429
2.2227
1.90585
2.04309
2.66484
1.91693
1.55896
2.21527
0.0802414
0.00627546
0.0175495
0.0964824
0.0677595
0.000859712
0.0311222
0.0662475
0.0385165
0.00292538
0.0288351
0.0495995
0.019194
0.017441
0.0359151
0.0283957
0.00642739
0.0345382
0.047024
0.0154483
0.0319256
0.0202493
0.0271711
0.0729854
0.0382856
0.0121623
0.0481173
0.0464242
0.0291289
0.00755754
0.0190691
0.0605704
0.0135611
0.0234431
0.0161873
0.047635
0.0181337
0.028365
0.0310799
0.0272432
0.0285573
0.0261558
0.0320322
0.0427039
0.0263753
0.0192408
0.018724
0.0290219
0.0207223
0.0157922
0.0183447
0.0307985
0.021796
0.0214545
0.0210824
0.0297088
0.0261929
0.0267053
0.0285023
0.0273371
0.028878
0.0266498
0.0290883
0.0332717
0.0275583
0.0215472
0.0211425
0.0249239
0.0219768
0.0190794
0.0208153
0.0247219
0.0226981
0.0217701
0.0231422
0.0256677
0.0253201
0.0257223
0.0266132
0.0260346
0.0261574
0.0261236
0.0268085
0.027607
0.0250709
0.0226779
0.0218753
0.0224932
0.0214361
0.0206661
0.021187
0.022612
0.0221965
0.0221831
0.0227836
0.0239577
0.0242255
0.0245628
0.0248343
0.0246271
0.0243785
0.0242763
0.0246117
0.0248393
0.023613
0.022253
0.0216075
0.0217382
0.0212244
0.020792
0.0210407
0.0217843
0.0217694
0.0218028
0.0221977
0.0228734
0.0231248
0.023288
0.023412
0.0233302
0.0227186
0.022675
0.0228578
0.0229194
0.0223409
0.0216048
0.0211818
0.0211185
0.0208645
0.0206513
0.0207732
0.0211318
0.0212118
0.0212715
0.0215014
0.021843
0.0220231
0.0221232
0.0221661
0.0221147
0.021217
0.0212536
0.0214461
0.021466
0.0212077
0.0208563
0.020617
0.020528
0.0204082
0.0203219
0.0203884
0.0205781
0.0206252
0.0206284
0.0207135
0.0208529
0.0209403
0.0209814
0.0209825
0.0209506
0.0200562
0.0200996
0.0202192
0.0202251
0.0201464
0.020037
0.019958
0.0199236
0.0198898
0.0198727
0.0199181
0.0200411
0.0200428
0.0199839
0.0199704
0.0199839
0.0199885
0.0199829
0.0199726
0.0199604
)
;

boundaryField
{
    top
    {
        type            prghTotalPressure;
        rho             rho;
        psi             none;
        gamma           1;
        p0              uniform 0;
        value           nonuniform List<scalar> 
20
(
0.0196188
0.0196184
0.019618
0.019617
0.0196156
0.019614
0.0196126
0.0196124
0.0196139
0.0196162
0.0196184
0.0196197
0.01962
0.01962
0.01962
0.01962
0.01962
0.01962
0.01962
0.01962
)
;
        rho             rho;
    }
    left
    {
        type            fixedFluxPressure;
        gradient        uniform 0;
        value           nonuniform List<scalar> 
40
(
14.469
14.4668
14.4667
14.4711
14.4736
14.4818
14.4915
14.5035
14.5204
14.5365
14.5567
14.5795
14.6048
14.6322
14.6568
14.683
14.7095
14.7353
14.7604
14.7862
14.8137
14.8451
14.8835
14.9346
15.0033
15.1318
15.1799
15.0926
13.3015
6.74467
1.07606
0.0802414
0.0319256
0.0285573
0.028878
0.0261574
0.0243785
0.0227186
0.021217
0.0200562
)
;
    }
    right
    {
        type            fixedFluxPressure;
        gradient        uniform 0;
        value           nonuniform List<scalar> 
40
(
14.4578
14.4564
14.4561
14.457
14.4599
14.4645
14.471
14.4799
14.4915
14.5046
14.5198
14.5386
14.5549
14.57
14.5846
14.5977
14.6076
14.6138
14.616
14.6139
14.6071
14.595
14.5764
14.549
14.5094
14.4539
14.3792
14.3312
14.2905
13.7155
2.21527
0.0154483
0.0272432
0.0273371
0.0260346
0.0246271
0.0233302
0.0221147
0.0209506
0.0199604
)
;
    }
    bottom
    {
        type            fixedFluxPressure;
        gradient        nonuniform List<scalar> 
20
(
-1.3288
-1.92086
-3.11889
-4.94181
-7.37877
-10.3444
-13.629
-16.8706
-19.5382
-21.0594
-21.038
-19.4818
-16.7982
-13.5628
-10.2974
-7.35515
-4.93519
-3.11954
-1.92422
-1.33169
)
;
        value           nonuniform List<scalar> 
20
(
14.469
14.4687
14.4687
14.4666
14.4623
14.4577
14.4535
14.449
14.445
14.4427
14.442
14.4425
14.4439
14.4465
14.4509
14.4543
14.4558
14.4576
14.455
14.4578
)
;
    }
    front
    {
        type            empty;
    }
    back
    {
        type            empty;
    }
    frontAndBack
    {
        type            empty;
    }
}


// ************************************************************************* //
