/*--------------------------------*- C++ -*----------------------------------*\
  =========                 |
  \\      /  F ield         | OpenFOAM: The Open Source CFD Toolbox
   \\    /   O peration     | Website:  https://openfoam.org
    \\  /    A nd           | Version:  10
     \\/     M anipulation  |
\*---------------------------------------------------------------------------*/
FoamFile
{
    format      ascii;
    class       surfaceScalarField;
    location    "0.07";
    object      phi;
}
// * * * * * * * * * * * * * * * * * * * * * * * * * * * * * * * * * * * * * //

dimensions      [0 3 -1 0 0 0 0];

internalField   nonuniform List<scalar> 
1540
(
6.92007e-14
-6.92548e-14
2.82144e-13
-2.13005e-13
6.10936e-13
-3.28857e-13
9.27698e-13
-3.16827e-13
1.12301e-12
-1.95376e-13
1.16438e-12
-4.14328e-14
1.01334e-12
1.5097e-13
7.30392e-13
2.82887e-13
3.31347e-13
3.9898e-13
-1.08118e-13
4.394e-13
-5.29358e-13
4.21176e-13
-8.99155e-13
3.69732e-13
-1.15963e-12
2.60408e-13
-1.29448e-12
1.34789e-13
-1.20773e-12
-8.68192e-14
-9.49026e-13
-2.58763e-13
-5.89433e-13
-3.59657e-13
-2.94024e-13
-2.95477e-13
-5.18501e-14
-2.42245e-13
-5.18857e-14
2.58226e-13
-3.27543e-13
8.34715e-13
-7.89564e-13
1.54508e-12
-1.03929e-12
2.1795e-12
-9.51322e-13
2.58819e-12
-6.04137e-13
2.66388e-12
-1.17194e-13
2.28449e-12
5.30293e-13
1.61268e-12
9.54625e-13
6.98342e-13
1.31324e-12
-2.88725e-13
1.42639e-12
-1.2593e-12
1.39168e-12
-2.11502e-12
1.22538e-12
-2.73177e-12
8.77087e-13
-2.96301e-12
3.65961e-13
-2.80861e-12
-2.41286e-13
-2.3308e-12
-7.36646e-13
-1.63652e-12
-1.05401e-12
-8.4972e-13
-1.08235e-12
-2.42171e-13
-8.49866e-13
-2.94094e-13
3.99437e-13
-7.27045e-13
1.26787e-12
-1.65807e-12
2.20672e-12
-1.97821e-12
3.03611e-12
-1.78079e-12
3.52716e-12
-1.09526e-12
3.53125e-12
-1.21362e-13
3.13819e-12
9.23279e-13
2.21433e-12
1.87842e-12
1.00908e-12
2.51842e-12
-3.75156e-13
2.81056e-12
-1.74395e-12
2.7604e-12
-2.90067e-12
2.38202e-12
-3.7132e-12
1.68954e-12
-4.03401e-12
6.86698e-13
-3.89745e-12
-3.77913e-13
-3.26666e-12
-1.36751e-12
-2.31727e-12
-2.00347e-12
-1.26284e-12
-2.13685e-12
-3.88032e-13
-1.72475e-12
-6.82162e-13
5.39192e-13
-1.2663e-12
1.55614e-12
-2.67509e-12
2.6717e-12
-3.09385e-12
3.64219e-12
-2.75135e-12
4.2146e-12
-1.66774e-12
4.24186e-12
-1.48702e-13
3.64638e-12
1.51869e-12
2.58883e-12
2.93589e-12
1.16174e-12
3.94544e-12
-4.50857e-13
4.42308e-12
-2.0422e-12
4.35166e-12
-3.39511e-12
3.73486e-12
-4.31265e-12
2.60701e-12
-4.78431e-12
1.15829e-12
-4.62576e-12
-5.36538e-13
-3.91684e-12
-2.0765e-12
-2.79193e-12
-3.12846e-12
-1.52053e-12
-3.40832e-12
-4.79676e-13
-2.76568e-12
-1.16187e-12
5.07469e-13
-1.77384e-12
1.60479e-12
-3.77248e-12
2.91824e-12
-4.40737e-12
4.03693e-12
-3.87011e-12
4.68576e-12
-2.31665e-12
4.70627e-12
-1.69287e-13
4.03184e-12
2.19304e-12
2.82738e-12
4.14028e-12
1.2563e-12
5.51644e-12
-5.11866e-13
6.19117e-12
-2.26494e-12
6.10467e-12
-3.78321e-12
5.25305e-12
-4.87936e-12
3.70309e-12
-5.3682e-12
1.64706e-12
-5.22135e-12
-6.83461e-13
-4.42519e-12
-2.87274e-12
-3.15831e-12
-4.39542e-12
-1.71511e-12
-4.85159e-12
-5.31258e-13
-3.94961e-12
-1.69317e-12
5.31838e-13
-2.30574e-12
1.7348e-12
-4.97551e-12
3.18706e-12
-5.85971e-12
4.35409e-12
-5.03722e-12
5.00912e-12
-2.97175e-12
4.9797e-12
-1.39943e-13
4.29716e-12
2.87551e-12
2.99814e-12
5.43922e-12
1.34248e-12
7.17203e-12
-5.44298e-13
8.07787e-12
-2.41025e-12
7.97055e-12
-4.04601e-12
6.88873e-12
-5.21273e-12
4.86974e-12
-5.88739e-12
2.32165e-12
-5.69209e-12
-8.78832e-13
-4.81879e-12
-3.74611e-12
-3.45447e-12
-5.75981e-12
-1.90877e-12
-6.39736e-12
-6.04727e-13
-5.25373e-12
-2.29793e-12
6.01171e-13
-2.90698e-12
1.88242e-12
-6.25683e-12
3.32531e-12
-7.30267e-12
4.53557e-12
-6.24755e-12
5.19197e-12
-3.62823e-12
5.18323e-12
-1.31279e-13
4.47001e-12
3.58866e-12
3.1686e-12
6.74056e-12
1.42659e-12
8.91396e-12
-5.60268e-13
1.00647e-11
-2.52141e-12
9.93162e-12
-4.20323e-12
8.57047e-12
-5.5297e-12
6.19614e-12
-6.05256e-12
2.84443e-12
-5.92166e-12
-1.0098e-12
-5.01759e-12
-4.65025e-12
-3.61336e-12
-7.16412e-12
-2.03764e-12
-7.97314e-12
-6.43454e-13
-6.64799e-12
-2.94142e-12
5.57023e-13
-3.46406e-12
1.89018e-12
-7.59006e-12
3.33736e-12
-8.74992e-12
4.53241e-12
-7.44266e-12
5.18738e-12
-4.28327e-12
5.13222e-12
-7.61913e-14
4.46127e-12
4.25953e-12
3.2647e-12
7.93706e-12
1.45683e-12
1.07218e-11
-5.83132e-13
1.21045e-11
-2.57259e-12
1.1921e-11
-4.2916e-12
1.02894e-11
-5.56533e-12
7.4698e-12
-6.18245e-12
3.46148e-12
-5.87852e-12
-1.3138e-12
-4.97908e-12
-5.54977e-12
-3.58114e-12
-8.56213e-12
-1.98972e-12
-9.56464e-12
-6.46609e-13
-7.99117e-12
-3.58807e-12
6.34921e-13
-4.09905e-12
1.80676e-12
-8.76197e-12
3.16362e-12
-1.01068e-11
4.30065e-12
-8.57977e-12
4.89051e-12
-4.87321e-12
4.87698e-12
-6.27308e-14
4.25596e-12
4.88048e-12
3.02117e-12
9.17178e-12
1.31485e-12
1.2428e-11
-6.32077e-13
1.40514e-11
-2.53596e-12
1.38248e-11
-4.21127e-12
1.19646e-11
-5.28773e-12
8.54619e-12
-5.6505e-12
3.82417e-12
-5.47311e-12
-1.49126e-12
-4.6514e-12
-6.37154e-12
-3.40513e-12
-9.80847e-12
-1.91413e-12
-1.10557e-11
-5.85107e-13
-9.32026e-12
-4.17321e-12
4.62654e-13
-4.56177e-12
1.46617e-12
-9.76556e-12
2.65344e-12
-1.12942e-11
3.67186e-12
-9.59826e-12
4.35865e-12
-5.56007e-12
4.42616e-12
-1.30306e-13
3.85934e-12
5.44722e-12
2.61984e-12
1.04112e-11
1.0644e-12
1.39834e-11
-6.60782e-13
1.57765e-11
-2.39624e-12
1.55602e-11
-3.85533e-12
1.34237e-11
-4.77805e-12
9.46884e-12
-5.0461e-12
4.09215e-12
-4.77287e-12
-1.76456e-12
-3.98496e-12
-7.15952e-12
-2.87938e-12
-1.09141e-11
-1.64524e-12
-1.22899e-11
-4.96865e-13
-1.04687e-11
-4.67011e-12
4.01411e-13
-4.96324e-12
1.13869e-12
-1.05029e-11
1.99435e-12
-1.21499e-11
2.96277e-12
-1.05667e-11
3.63716e-12
-6.23454e-12
3.736e-12
-2.29211e-13
3.23733e-12
5.94582e-12
2.1985e-12
1.145e-11
8.14398e-13
1.53674e-11
-6.68121e-13
1.7259e-11
-2.10245e-12
1.69945e-11
-3.26055e-12
1.45817e-11
-4.04238e-12
1.02506e-11
-4.27252e-12
4.32222e-12
-3.91558e-12
-2.12157e-12
-3.22118e-12
-7.854e-12
-2.24475e-12
-1.18906e-11
-1.22083e-12
-1.33139e-11
-5.00556e-13
-1.11891e-11
-5.1707e-12
3.25953e-13
-5.28925e-12
8.9323e-13
-1.10703e-11
1.57798e-12
-1.28347e-11
2.17253e-12
-1.11614e-11
2.61331e-12
-6.67539e-12
2.74049e-12
-3.56456e-13
2.33903e-12
6.34721e-12
1.49726e-12
1.22917e-11
4.31557e-13
1.6433e-11
-6.79782e-13
1.83702e-11
-1.7254e-12
1.804e-11
-2.58332e-12
1.54395e-11
-3.11614e-12
1.07834e-11
-3.12874e-12
4.33476e-12
-2.73182e-12
-2.51856e-12
-2.05184e-12
-8.53405e-12
-1.39444e-12
-1.25481e-11
-6.95062e-13
-1.40134e-11
-1.34849e-13
-1.17493e-11
-5.30558e-12
1.93903e-13
-5.48322e-12
3.7133e-13
-1.12477e-11
7.13743e-13
-1.31772e-11
9.62462e-13
-1.14101e-11
1.18547e-12
-6.89846e-12
1.24036e-12
-4.1141e-13
9.97908e-13
6.58959e-12
5.52019e-13
1.27375e-11
-6.69405e-14
1.70519e-11
-7.20348e-13
1.90236e-11
-1.30723e-12
1.86268e-11
-1.67881e-12
1.58111e-11
-1.80725e-12
1.09117e-11
-1.73929e-12
4.26674e-12
-1.38059e-12
-2.87733e-12
-9.39556e-13
-8.97514e-12
-6.0107e-13
-1.28866e-11
-3.16614e-13
-1.42979e-11
-8.05607e-14
-1.19855e-11
-5.38617e-12
-6.5874e-14
-5.4174e-12
-1.34371e-13
-1.11793e-11
-3.23001e-13
-1.29887e-11
-4.29408e-13
-1.13038e-11
-4.41196e-13
-6.88673e-12
-3.98638e-13
-4.54033e-13
-4.39609e-13
6.6305e-12
-5.45313e-13
1.28431e-11
-6.66846e-13
1.71734e-11
-8.3642e-13
1.91931e-11
-9.25707e-13
1.8716e-11
-8.67429e-13
1.57527e-11
-5.68215e-13
1.06125e-11
-2.95996e-13
3.99446e-12
2.01087e-14
-3.1935e-12
1.88949e-13
-9.14405e-12
2.9962e-13
-1.29974e-11
1.56917e-13
-1.41553e-11
3.13584e-14
-1.186e-11
-5.35485e-12
-2.24726e-13
-5.19273e-12
-6.68291e-13
-1.07358e-11
-1.31595e-12
-1.23411e-11
-1.82751e-12
-1.07923e-11
-2.13418e-12
-6.58012e-12
-2.07289e-12
-5.15393e-13
-1.98125e-12
6.5388e-12
-1.69231e-12
1.25541e-11
-1.33709e-12
1.68181e-11
-9.17679e-13
1.87736e-11
-4.36241e-13
1.82345e-11
1.37496e-13
1.51789e-11
6.33343e-13
1.01165e-11
1.17596e-12
3.45177e-12
1.36079e-12
-3.37838e-12
1.39416e-12
-9.17748e-12
1.19025e-12
-1.27935e-11
7.35644e-13
-1.37007e-11
2.2469e-13
-1.13491e-11
-5.13019e-12
-3.90946e-13
-4.80184e-12
-1.26916e-12
-9.85765e-12
-2.28191e-12
-1.13284e-11
-3.12235e-12
-9.95194e-12
-3.64762e-12
-6.05491e-12
-3.73465e-12
-4.28424e-13
-3.32256e-12
6.12664e-12
-2.7478e-12
1.19793e-11
-1.9857e-12
1.6056e-11
-1.00105e-12
1.77889e-11
-1.87552e-14
1.72522e-11
9.19823e-13
1.42403e-11
1.83951e-12
9.1968e-12
2.47646e-12
2.81476e-12
2.78779e-12
-3.68977e-12
2.56864e-12
-8.95839e-12
1.96507e-12
-1.219e-11
1.16248e-12
-1.28982e-11
4.00829e-13
-1.05875e-11
-4.72939e-12
-5.29064e-13
-4.27283e-12
-1.70661e-12
-8.68016e-12
-3.06523e-12
-9.96981e-12
-4.29087e-12
-8.72635e-12
-5.06207e-12
-5.28377e-12
-5.22208e-12
-2.68479e-13
-4.6856e-12
5.5901e-12
-3.78944e-12
1.10831e-11
-2.54445e-12
1.48109e-11
-1.14414e-12
1.63885e-11
3.77018e-13
1.5731e-11
1.78704e-12
1.28302e-11
3.02781e-12
7.95598e-12
3.85625e-12
1.98627e-12
3.97216e-12
-3.80574e-12
3.50986e-12
-8.49614e-12
2.60729e-12
-1.12875e-11
1.4926e-12
-1.17836e-11
4.89042e-13
-9.58397e-12
-4.24037e-12
-6.20485e-13
-3.6524e-12
-1.96337e-12
-7.33733e-12
-3.57597e-12
-8.35727e-12
-5.04794e-12
-7.25443e-12
-6.01651e-12
-4.31526e-12
-6.32424e-12
3.91924e-14
-5.80422e-12
5.07003e-12
-4.5829e-12
9.86172e-12
-3.02579e-12
1.32537e-11
-1.25066e-12
1.46134e-11
6.32429e-13
1.38478e-11
2.4098e-12
1.10528e-11
3.8325e-12
6.53322e-12
4.59539e-12
1.22333e-12
4.64542e-12
-3.85582e-12
4.02306e-12
-7.87384e-12
2.94397e-12
-1.02084e-11
1.67614e-12
-1.05158e-11
5.39572e-13
-8.44746e-12
-3.70083e-12
-6.41089e-13
-3.01136e-12
-2.05974e-12
-5.91874e-12
-3.75131e-12
-6.66577e-12
-5.3105e-12
-5.69529e-12
-6.40635e-12
-3.21947e-12
-6.82739e-12
4.60181e-13
-6.45181e-12
4.69439e-12
-5.20348e-12
8.61334e-12
-3.40973e-12
1.14599e-11
-1.35703e-12
1.25606e-11
7.54854e-13
1.17359e-11
2.68689e-12
9.12069e-12
4.09972e-12
5.12034e-12
4.79822e-12
5.2478e-13
4.7538e-12
-3.81146e-12
4.06957e-12
-7.18966e-12
2.95754e-12
-9.09647e-12
1.67185e-12
-9.23015e-12
5.41169e-13
-7.31683e-12
-3.15969e-12
-6.01641e-13
-2.40977e-12
-1.97473e-12
-4.54571e-12
-3.62625e-12
-5.0143e-12
-5.18572e-12
-4.13588e-12
-6.35395e-12
-2.05129e-12
-6.85049e-12
9.56667e-13
-6.51233e-12
4.35618e-12
-5.37501e-12
7.47596e-12
-3.5848e-12
9.66967e-12
-1.47099e-12
1.04467e-11
6.73117e-13
9.59173e-12
2.55846e-12
7.23529e-12
3.89145e-12
3.7873e-12
4.51896e-12
-1.02786e-13
4.43423e-12
-3.72678e-12
3.7593e-12
-6.51478e-12
2.70714e-12
-8.04437e-12
1.51945e-12
-8.04251e-12
4.89306e-13
-6.28674e-12
-2.67041e-12
-5.16692e-13
-1.89313e-12
-1.75501e-12
-3.30745e-12
-3.28143e-12
-3.48793e-12
-4.76052e-12
-2.65685e-12
-5.89384e-12
-9.18029e-13
-6.4108e-12
1.47357e-12
-6.15594e-12
4.10127e-12
-5.13624e-12
6.45621e-12
-3.51917e-12
8.05254e-12
-1.56232e-12
8.48982e-12
4.17231e-13
7.61213e-12
2.12899e-12
5.52348e-12
3.3168e-12
2.59944e-12
3.86064e-12
-6.46678e-13
3.77627e-12
-3.64246e-12
3.18884e-12
-5.9274e-12
2.27903e-12
-7.13461e-12
1.26624e-12
-7.02977e-12
4.04133e-13
-5.42469e-12
-2.2663e-12
-3.98616e-13
-1.49456e-12
-1.44194e-12
-2.26418e-12
-2.77029e-12
-2.15964e-12
-4.07346e-12
-1.35374e-12
-5.0991e-12
1.07551e-13
-5.60007e-12
1.97448e-12
-5.4347e-12
3.93583e-12
-4.59145e-12
5.61291e-12
-3.23301e-12
6.69404e-12
-1.57584e-12
6.8326e-12
9.8962e-14
5.93727e-12
1.55306e-12
4.06932e-12
2.55288e-12
1.59957e-12
3.01828e-12
-1.11213e-12
2.95709e-12
-3.58131e-12
2.49191e-12
-5.46227e-12
1.76553e-12
-6.40828e-12
9.67804e-13
-6.23209e-12
3.05483e-13
-4.76242e-12
-1.96084e-12
-2.53394e-13
-1.24122e-12
-1.05792e-12
-1.45972e-12
-2.13404e-12
-1.08359e-12
-3.19024e-12
-2.97598e-13
-4.06742e-12
9.8467e-13
-4.52597e-12
2.43297e-12
-4.44708e-12
3.85689e-12
-3.78815e-12
4.95392e-12
-2.73681e-12
5.64264e-12
-1.43952e-12
5.53526e-12
-1.40421e-13
4.63812e-12
1.01634e-12
2.91251e-12
1.80379e-12
8.12056e-13
2.17999e-12
-1.48838e-12
2.13546e-12
-3.53683e-12
1.80797e-12
-5.13483e-12
1.2661e-12
-5.86646e-12
6.9308e-13
-5.65913e-12
2.20148e-13
-4.28954e-12
-1.74072e-12
-1.04941e-13
-1.13634e-12
-6.18586e-13
-9.46132e-13
-1.40708e-12
-2.9515e-13
-2.13336e-12
4.28618e-13
-2.86824e-12
1.71948e-12
-3.25702e-12
2.82169e-12
-3.25799e-12
3.8578e-12
-2.74133e-12
4.4372e-12
-1.99975e-12
4.901e-12
-1.0551e-12
4.59055e-12
-1.66108e-13
3.74906e-12
6.8645e-13
2.05989e-12
1.2422e-12
2.56249e-13
1.50769e-12
-1.75392e-12
1.45459e-12
-3.48378e-12
1.25538e-12
-4.93567e-12
8.65524e-13
-5.47667e-12
4.74945e-13
-5.2686e-12
1.59963e-13
-3.97462e-12
-1.58079e-12
1.58234e-13
-1.29463e-12
-1.05512e-13
-6.8245e-13
-7.65539e-13
3.64812e-13
-1.07141e-12
7.34421e-13
-1.56353e-12
2.21154e-12
-1.75408e-12
3.01218e-12
-1.88488e-12
3.98854e-12
-1.38908e-12
3.94134e-12
-9.90881e-13
4.50274e-12
-3.22486e-13
3.92209e-12
1.55294e-13
3.27122e-12
7.30697e-13
1.48443e-12
8.66688e-13
1.202e-13
1.08378e-12
-1.97107e-12
9.75392e-13
-3.37545e-12
9.24584e-13
-4.88492e-12
6.73259e-13
-5.2254e-12
3.73541e-13
-4.96894e-12
1.18569e-13
-3.7197e-12
-1.46225e-12
3.48541e-13
-1.64323e-12
5.60578e-13
-8.94551e-13
3.97913e-13
5.27413e-13
7.85374e-13
3.46894e-13
2.99632e-13
2.69722e-12
1.38158e-14
3.29793e-12
-2.773e-13
4.27959e-12
2.59228e-13
3.40475e-12
3.91361e-13
4.37054e-12
7.59902e-13
3.55349e-12
6.22224e-13
3.40884e-12
1.00561e-12
1.10099e-12
1.13712e-12
-1.13719e-14
1.18808e-12
-2.02209e-12
8.49961e-13
-3.03739e-12
8.64032e-13
-4.89905e-12
6.83333e-13
-5.04476e-12
3.93992e-13
-4.67966e-12
1.06965e-13
-3.43274e-12
-1.35531e-12
9.23101e-13
-2.56638e-12
1.37908e-12
-1.35059e-12
1.14117e-12
7.65265e-13
2.28457e-12
-7.96569e-13
2.08214e-12
2.89959e-12
1.74434e-12
3.63566e-12
1.55494e-12
4.46892e-12
1.97995e-12
2.97968e-12
2.19694e-12
4.15349e-12
2.52486e-12
3.22551e-12
1.90702e-12
4.02662e-12
1.93257e-12
1.07538e-12
1.1084e-12
8.12741e-13
9.67396e-13
-1.88114e-12
3.95591e-13
-2.46564e-12
8.48514e-13
-5.35203e-12
9.87092e-13
-5.18339e-12
5.801e-13
-4.27273e-12
-5.95884e-14
-2.7931e-12
-1.41493e-12
-6.38216e-13
-1.92822e-12
3.14959e-12
-5.13844e-12
4.92317e-12
-1.00836e-12
3.97606e-12
1.50493e-13
3.40617e-12
3.46942e-12
5.96095e-12
1.08083e-12
5.13545e-12
5.29438e-12
3.96766e-12
4.14742e-12
4.2385e-12
3.8826e-12
6.59603e-12
8.67931e-13
4.43447e-12
6.18814e-12
3.15609e-12
2.35371e-12
2.7277e-12
1.24109e-12
2.6241e-12
-1.77758e-12
3.60731e-13
-2.02314e-13
1.71275e-12
-6.70409e-12
2.95576e-12
-6.42644e-12
1.82393e-12
-3.14094e-12
-8.52654e-13
-1.16562e-13
-2.26759e-12
-8.64165e-12
6.71341e-12
6.04446e-12
-1.98246e-11
1.56261e-11
-1.05901e-11
3.4679e-12
1.23087e-11
-3.2887e-12
1.0226e-11
1.11702e-11
-1.33781e-11
1.36304e-11
2.83416e-12
2.47991e-12
1.52979e-11
3.34237e-12
3.02011e-12
1.34951e-11
-9.28482e-12
9.86871e-12
9.81451e-12
2.43387e-12
9.78852e-12
3.52875e-12
1.46187e-13
5.24131e-12
-3.49016e-12
-2.3352e-12
7.37417e-12
1.55582e-13
-9.1949e-12
8.61113e-12
-1.4882e-11
3.57193e-12
1.89824e-12
-6.36936e-12
9.8247e-12
-8.63696e-12
-4.18516e-11
4.8565e-11
1.55127e-11
-7.71889e-11
4.82386e-11
-4.33159e-11
-1.2832e-11
7.33793e-11
-3.79949e-11
3.53889e-11
2.9306e-11
-8.0679e-11
3.79495e-11
-5.80934e-12
-1.1223e-11
6.44705e-11
-8.36671e-12
1.63784e-13
3.80164e-11
-5.56679e-11
2.60762e-11
2.17547e-11
-5.78814e-12
4.16528e-11
8.97524e-12
-1.46172e-11
2.52634e-11
-1.97783e-11
-5.77674e-12
3.84143e-11
-2.46726e-12
-1.25044e-11
3.26203e-11
-4.99696e-11
1.93452e-11
1.51734e-11
-2.48507e-11
5.40206e-11
-3.34877e-11
-4.08805e-11
8.94455e-11
3.65246e-12
-1.21722e-10
3.8059e-11
-7.77225e-11
-1.2945e-11
1.24383e-10
-3.05668e-11
5.30106e-11
-5.03777e-12
-1.06208e-10
1.91652e-11
-3.00124e-11
-2.89447e-12
8.653e-11
1.42282e-12
-4.15359e-12
1.54024e-11
-6.96475e-11
1.37266e-11
2.34304e-11
8.09227e-12
4.72871e-11
3.09552e-11
-3.74802e-11
2.47832e-11
-1.36064e-11
-2.79305e-12
6.59904e-11
1.0662e-11
-2.59595e-11
5.33775e-11
-9.26852e-11
2.12546e-11
4.72962e-11
-2.70604e-11
1.02336e-10
-6.05481e-11
5.31421e-11
3.63031e-11
-1.68437e-11
-5.17366e-11
-7.00434e-11
-2.45233e-11
3.11022e-11
2.32372e-11
4.2013e-11
4.20994e-11
-3.82466e-11
-2.5949e-11
-2.31289e-11
-4.51305e-11
4.54376e-11
1.79632e-11
3.45551e-11
6.72848e-12
-1.45452e-11
-2.05475e-11
-2.776e-12
1.16608e-11
6.52182e-11
-2.07075e-11
1.95784e-11
8.15924e-12
3.78397e-12
2.18769e-12
2.58716e-11
4.39024e-11
4.94263e-11
-4.95146e-11
-1.8636e-11
-2.46232e-11
-2.6783e-12
3.13381e-11
4.01536e-11
5.95032e-11
-2.03947e-11
5.31279e-12
3.09897e-11
-3.22979e-11
-1.41265e-11
-2.11055e-11
-3.57164e-11
-7.18149e-11
7.39459e-11
-6.27438e-12
-2.34417e-11
-2.10932e-11
-1.11309e-11
2.2073e-12
-6.84316e-11
-1.01843e-11
3.03541e-11
2.55791e-11
-2.90354e-11
4.44045e-11
-3.93736e-11
1.05051e-10
-4.89865e-11
1.12492e-11
7.30939e-11
4.85717e-11
-2.91638e-11
4.50542e-11
5.70466e-12
1.14111e-10
-2.5155e-11
1.59849e-11
4.86111e-11
-5.23915e-12
-3.39968e-12
5.67966e-12
2.04187e-11
2.7287e-11
3.78953e-11
6.89205e-12
4.71561e-12
2.62736e-11
-8.55074e-12
-8.60802e-13
-3.08662e-11
-1.34016e-11
2.02667e-11
2.28123e-11
4.5603e-13
-3.63167e-12
1.0278e-11
-2.09535e-11
-1.53911e-11
-4.27632e-11
2.44967e-11
-9.53425e-12
2.02881e-11
-2.48274e-11
1.5906e-11
-3.49921e-11
-8.38062e-12
-2.47004e-11
4.68848e-11
1.78279e-11
2.08618e-11
-3.14135e-12
2.78531e-11
-1.28728e-12
-2.04361e-12
4.74123e-12
2.16052e-11
2.49618e-11
1.33051e-12
1.68744e-11
-2.45231e-12
2.4201e-11
4.44078e-12
3.10017e-11
1.13326e-11
1.32721e-11
1.30009e-11
3.95276e-12
8.4579e-12
-6.56177e-12
-2.8877e-12
1.22363e-11
4.01353e-12
1.66898e-11
-8.08575e-12
1.19834e-11
-1.62476e-11
5.20919e-13
-3.13013e-11
1.3419e-11
-2.24329e-11
1.35967e-11
-2.50057e-11
2.54961e-12
-2.39456e-11
-3.7868e-12
-1.83645e-11
1.30503e-11
9.90349e-13
1.08605e-11
-9.52131e-13
3.64929e-12
5.92348e-12
-2.24826e-12
1.06383e-11
1.42247e-12
2.12906e-11
-3.56447e-12
2.18609e-11
-4.81932e-12
2.54553e-11
6.11848e-13
2.557e-11
1.19442e-11
5.62537e-12
7.37509e-12
8.04602e-12
6.03671e-12
5.25676e-12
-9.89806e-14
1.08745e-11
-1.6047e-12
1.24407e-11
-9.65254e-12
1.22341e-11
-1.60415e-11
6.31912e-12
-2.53869e-11
7.04637e-12
-2.31606e-11
4.67687e-12
-2.26367e-11
-3.47694e-14
-1.92344e-11
-4.02399e-12
-1.43758e-11
3.09238e-13
-3.34332e-12
-1.4799e-12
8.3657e-13
-3.53847e-12
7.98162e-12
-6.21722e-12
1.33166e-11
-5.03527e-12
2.01082e-11
-5.87271e-12
2.26979e-11
-4.73123e-12
2.43134e-11
-1.17892e-12
2.20173e-11
1.07652e-11
3.64931e-12
3.72539e-12
6.68117e-12
3.00441e-12
7.2276e-12
-6.45844e-13
9.78827e-12
-4.16579e-12
1.01705e-11
-1.00352e-11
9.67923e-12
-1.55506e-11
5.52883e-12
-2.12369e-11
3.61784e-12
-2.125e-11
7.6535e-13
-1.97846e-11
-2.34395e-12
-1.61255e-11
-5.367e-12
-1.13531e-11
-4.74576e-12
-3.96491e-12
-5.92602e-12
2.01648e-12
-6.72292e-12
8.77818e-12
-7.67499e-12
1.42684e-11
-6.87858e-12
1.93115e-11
-6.1862e-12
2.20052e-11
-4.36599e-12
2.24929e-11
-1.43446e-12
1.90855e-11
9.33057e-12
2.16607e-12
1.55903e-12
4.59703e-12
5.73134e-13
6.04245e-12
-2.09157e-12
7.46638e-12
-5.59002e-12
7.62546e-12
-1.01946e-11
6.68954e-12
-1.4615e-11
3.83477e-12
-1.83824e-11
1.48265e-12
-1.88981e-11
-1.02852e-12
-1.72737e-11
-3.41631e-12
-1.37379e-11
-5.58676e-12
-9.18288e-12
-6.21806e-12
-3.33385e-12
-6.96038e-12
2.75855e-12
-7.32772e-12
9.14528e-12
-7.46967e-12
1.44101e-11
-6.75263e-12
1.85942e-11
-5.59237e-12
2.08447e-11
-3.66531e-12
2.05656e-11
-1.28369e-12
1.67036e-11
8.04681e-12
1.08981e-12
4.69063e-13
2.41328e-12
-7.50501e-13
3.80887e-12
-3.48733e-12
4.63323e-12
-6.41454e-12
4.64435e-12
-1.02059e-11
3.88507e-12
-1.38558e-11
2.15012e-12
-1.66476e-11
3.79837e-13
-1.7128e-11
-1.41614e-12
-1.54778e-11
-3.1173e-12
-1.20369e-11
-4.72584e-12
-7.57446e-12
-5.55635e-12
-2.50347e-12
-6.17276e-12
3.37484e-12
-6.50794e-12
9.48034e-12
-6.46602e-12
1.4368e-11
-5.83039e-12
1.79585e-11
-4.67455e-12
1.96887e-11
-2.98467e-12
1.88756e-11
-1.10306e-12
1.48219e-11
6.94372e-12
4.35795e-13
7.55132e-13
1.307e-12
1.57175e-12
1.55445e-12
1.25958e-12
6.59174e-13
-5.06302e-15
-7.03594e-13
-1.46369e-12
-2.44537e-12
-3.6771e-12
-4.9308e-12
-5.52712e-12
-5.52862e-12
-4.99277e-12
-3.98781e-12
-2.60627e-12
-1.09136e-12
)
;

boundaryField
{
    top
    {
        type            calculated;
        value           nonuniform List<scalar> 
20
(
3.32225e-14
-1.06988e-12
-4.03924e-12
-6.67932e-12
-1.01886e-11
-1.3561e-11
-1.60472e-11
-1.64638e-11
-1.47793e-11
-1.12769e-11
-6.59282e-12
-1.27178e-12
4.62851e-12
1.00766e-11
1.43695e-11
1.74226e-11
1.86837e-11
1.7494e-11
1.3307e-11
5.85236e-12
)
;
    }
    left
    {
        type            calculated;
        value           uniform 0;
    }
    right
    {
        type            calculated;
        value           uniform 0;
    }
    bottom
    {
        type            calculated;
        value           nonuniform List<scalar> 
20
(
0
0
0
0
0
-3.9443e-31
0
0
0
0
-7.88861e-31
-7.88861e-31
0
0
-3.9443e-31
0
0
0
0
0
)
;
    }
    front
    {
        type            empty;
        value           nonuniform List<scalar> 0();
    }
    back
    {
        type            empty;
        value           nonuniform List<scalar> 0();
    }
    frontAndBack
    {
        type            empty;
        value           nonuniform List<scalar> 0();
    }
}


// ************************************************************************* //
