/*--------------------------------*- C++ -*----------------------------------*\
  =========                 |
  \\      /  F ield         | OpenFOAM: The Open Source CFD Toolbox
   \\    /   O peration     | Website:  https://openfoam.org
    \\  /    A nd           | Version:  10
     \\/     M anipulation  |
\*---------------------------------------------------------------------------*/
FoamFile
{
    format      ascii;
    class       volScalarField;
    location    "0.07";
    object      T;
}
// * * * * * * * * * * * * * * * * * * * * * * * * * * * * * * * * * * * * * //

dimensions      [0 0 0 1 0 0 0];

internalField   nonuniform List<scalar> 
800
(
300.014
300.02
300.032
300.05
300.075
300.105
300.139
300.172
300.199
300.215
300.214
300.199
300.171
300.138
300.105
300.075
300.05
300.032
300.02
300.014
300.023
300.033
300.053
300.081
300.117
300.159
300.204
300.247
300.281
300.301
300.301
300.281
300.246
300.203
300.159
300.117
300.081
300.053
300.033
300.023
300.046
300.065
300.102
300.153
300.214
300.28
300.346
300.406
300.453
300.48
300.479
300.453
300.406
300.346
300.28
300.215
300.154
300.102
300.066
300.046
300.086
300.122
300.189
300.279
300.382
300.486
300.584
300.667
300.729
300.764
300.764
300.73
300.668
300.586
300.489
300.384
300.281
300.191
300.123
300.087
300.148
300.209
300.321
300.47
300.635
300.795
300.935
301.047
301.126
301.167
301.168
301.129
301.051
300.94
300.801
300.64
300.474
300.324
300.211
300.148
300.227
300.322
300.495
300.723
300.974
301.212
301.408
301.555
301.652
301.701
301.703
301.658
301.564
301.417
301.22
300.981
300.728
300.498
300.323
300.228
300.315
300.446
300.689
301.016
301.378
301.719
301.995
302.188
302.307
302.363
302.366
302.316
302.2
302.006
301.729
301.385
301.02
300.691
300.446
300.315
300.395
300.561
300.877
301.314
301.81
302.284
302.665
302.924
303.072
303.138
303.144
303.085
302.937
302.675
302.291
301.812
301.311
300.874
300.558
300.393
300.452
300.646
301.03
301.579
302.225
302.858
303.375
303.724
303.917
303.999
304.006
303.93
303.735
303.381
302.857
302.214
301.564
301.016
300.638
300.447
300.475
300.689
301.126
301.78
302.579
303.391
304.071
304.537
304.796
304.904
304.91
304.805
304.541
304.063
303.369
302.546
301.745
301.099
300.673
300.466
300.463
300.683
301.154
301.892
302.835
303.831
304.695
305.305
305.653
305.799
305.802
305.653
305.291
304.66
303.775
302.77
301.834
301.114
300.66
300.45
300.421
300.635
301.116
301.907
302.97
304.141
305.196
305.969
306.425
306.622
306.618
306.407
305.922
305.115
304.036
302.863
301.823
301.062
300.606
300.404
300.358
300.558
301.025
301.834
302.975
304.291
305.527
306.468
307.044
307.298
307.284
306.994
306.366
305.373
304.109
302.806
301.711
300.953
300.521
300.339
300.286
300.463
300.894
301.678
302.84
304.248
305.631
306.731
307.431
307.746
307.714
307.329
306.546
305.374
303.963
302.594
301.512
300.804
300.42
300.265
300.215
300.362
300.736
301.45
302.564
303.986
305.456
306.682
307.495
307.864
307.808
307.32
306.387
305.073
303.593
302.248
301.25
300.634
300.317
300.194
300.151
300.265
300.568
301.171
302.164
303.503
304.966
306.253
307.144
307.55
307.463
306.881
305.838
304.465
303.027
301.807
300.958
300.464
300.222
300.132
300.099
300.181
300.406
300.876
301.689
302.844
304.183
305.428
306.325
306.733
306.613
305.976
304.906
303.598
302.327
301.325
300.671
300.312
300.144
300.083
300.061
300.115
300.268
300.599
301.199
302.098
303.198
304.278
305.085
305.448
305.305
304.681
303.704
302.597
301.603
300.873
300.425
300.191
300.085
300.048
300.034
300.067
300.161
300.371
300.765
301.383
302.177
302.991
303.62
303.896
303.751
303.224
302.456
301.647
300.973
300.51
300.24
300.105
300.046
300.026
300.018
300.036
300.088
300.207
300.436
300.807
301.299
301.82
302.231
302.403
302.283
301.91
301.404
300.906
300.517
300.263
300.121
300.052
300.023
300.013
300.009
300.018
300.044
300.104
300.222
300.414
300.674
300.953
301.173
301.259
301.178
300.962
300.686
300.431
300.24
300.119
300.054
300.023
300.01
300.006
300.004
300.008
300.02
300.047
300.1
300.187
300.303
300.428
300.525
300.558
300.514
300.412
300.288
300.178
300.098
300.048
300.022
300.009
300.004
300.002
300.002
300.003
300.008
300.019
300.041
300.075
300.119
300.166
300.201
300.211
300.192
300.152
300.105
300.065
300.035
300.017
300.008
300.003
300.002
300.001
300.001
300.001
300.003
300.007
300.015
300.026
300.041
300.056
300.067
300.069
300.063
300.049
300.034
300.021
300.011
300.006
300.003
300.001
300.001
300
300
300
300.001
300.002
300.005
300.008
300.013
300.017
300.02
300.02
300.018
300.014
300.01
300.006
300.003
300.002
300.001
300
300
300
300
300
300
300.001
300.001
300.002
300.003
300.005
300.005
300.005
300.005
300.004
300.003
300.002
300.001
300
300
300
300
300
300
300
300
300
300
300.001
300.001
300.001
300.001
300.001
300.001
300.001
300.001
300
300
300
300
300
300
300
300
300
300
300
300
300
300
300
300
300
300
300
300
300
300
300
300
300
300
300
300
300
300
300
300
300
300
300
300
300
300
300
300
300
300
300
300
300
300
300
300
300
300
300
300
300
300
300
300
300
300
300
300
300
300
300
300
300
300
300
300
300
300
300
300
300
300
300
300
300
300
300
300
300
300
300
300
300
300
300
300
300
300
300
300
300
300
300
300
300
300
300
300
300
300
300
300
300
300
300
300
300
300
300
300
300
300
300
300
300
300
300
300
300
300
300
300
300
300
300
300
300
300
300
300
300
300
300
300
300
300
300
300
300
300
300
300
300
300
300
300
300
300
300
300
300
300
300
300
300
300
300
300
300
300
300
300
300
300
300
300
300
300
300
300
300
300
300
300
300
300
300
300
300
300
300
300
300
300
300
300
300
300
300
300
300
300
300
300
300
300
300
300
300
300
300
300
300
300
300
300
300
300
300
300
300
300
300
300
300
300
300
300
300
300
300
300
300
300
300
300
300
300
300
300
300
300
300
300
300
300
300
300
300
300
300
300
300
300
300
300
300
300
300
300
300
300
300
300
300
300
300
300
300
300
300
300
300
300
300
)
;

boundaryField
{
    top
    {
        type            inletOutlet;
        inletValue      uniform 300;
        value           nonuniform List<scalar> 
20
(
300
300
300
300
300
300
300
300
300
300
300
300
300
300
300
300
300
300
300
300
)
;
    }
    left
    {
        type            zeroGradient;
    }
    right
    {
        type            zeroGradient;
    }
    bottom
    {
        type            zeroGradient;
    }
    front
    {
        type            empty;
    }
    back
    {
        type            empty;
    }
    frontAndBack
    {
        type            empty;
    }
}


// ************************************************************************* //
