/*--------------------------------*- C++ -*----------------------------------*\
  =========                 |
  \\      /  F ield         | OpenFOAM: The Open Source CFD Toolbox
   \\    /   O peration     | Website:  https://openfoam.org
    \\  /    A nd           | Version:  10
     \\/     M anipulation  |
\*---------------------------------------------------------------------------*/
FoamFile
{
    format      ascii;
    class       volVectorField;
    location    "0.07";
    object      U;
}
// * * * * * * * * * * * * * * * * * * * * * * * * * * * * * * * * * * * * * //

dimensions      [0 1 -1 0 0 0 0];

internalField   nonuniform List<vector> 
800
(
(8.10993e-07 -2.35551e-07 0)
(3.02278e-05 -6.15189e-06 0)
(8.79326e-05 -1.46826e-05 0)
(0.000156326 -1.50034e-05 0)
(0.000210596 -8.70858e-06 0)
(0.000236075 -2.56244e-06 0)
(0.000224936 5.77573e-06 0)
(0.000179736 9.87665e-06 0)
(0.000109153 1.57177e-05 0)
(2.30326e-05 1.716e-05 0)
(-6.51413e-05 1.57722e-05 0)
(-0.000146273 1.41193e-05 0)
(-0.000211914 9.86262e-06 0)
(-0.000252922 7.12902e-06 0)
(-0.000257285 -4.69906e-06 0)
(-0.000220848 -1.29795e-05 0)
(-0.000156212 -1.72515e-05 0)
(-8.65558e-05 -8.66025e-06 0)
(-2.76561e-05 -8.46292e-06 0)
(1.98191e-06 1.88905e-06 0)
(1.00627e-05 -3.21643e-05 0)
(0.000100156 -8.68259e-05 0)
(0.000236597 -0.000123788 0)
(0.000379718 -0.000117017 0)
(0.000491046 -7.43091e-05 0)
(0.000542394 -1.64334e-05 0)
(0.000512103 6.09446e-05 0)
(0.00040355 0.000111024 0)
(0.000239045 0.00015362 0)
(4.31499e-05 0.000167237 0)
(-0.00015865 0.000161862 0)
(-0.000347004 0.000142734 0)
(-0.000499188 0.000102188 0)
(-0.000586955 4.53216e-05 0)
(-0.000594722 -3.15374e-05 0)
(-0.000527846 -9.3092e-05 0)
(-0.00040314 -0.000129707 0)
(-0.000245887 -0.000121052 0)
(-9.76552e-05 -9.53824e-05 0)
(-7.49752e-06 -2.7114e-05 0)
(1.63533e-05 -0.000100783 0)
(0.000155335 -0.000234629 0)
(0.000347104 -0.000290951 0)
(0.00053532 -0.000264942 0)
(0.000675455 -0.000165578 0)
(0.000730081 -2.50264e-05 0)
(0.00069041 0.000140136 0)
(0.000553743 0.000273334 0)
(0.000334181 0.000369913 0)
(6.6589e-05 0.000408563 0)
(-0.000217197 0.000400129 0)
(-0.000478089 0.000348151 0)
(-0.000681308 0.000247345 0)
(-0.000798664 0.000100827 0)
(-0.000817223 -6.17606e-05 0)
(-0.000735763 -0.00020454 0)
(-0.000569079 -0.000295774 0)
(-0.000355535 -0.000309448 0)
(-0.000150661 -0.00024709 0)
(-1.47826e-05 -9.28655e-05 0)
(2.61572e-05 -0.000196754 0)
(0.000197644 -0.000426535 0)
(0.000423056 -0.000499259 0)
(0.000645288 -0.000446301 0)
(0.000809633 -0.000272603 0)
(0.000873836 -2.7495e-05 0)
(0.000816266 0.00023979 0)
(0.000645399 0.000473635 0)
(0.000388406 0.00063761 0)
(7.52393e-05 0.000713355 0)
(-0.000255707 0.000701231 0)
(-0.000559486 0.000602999 0)
(-0.000794273 0.000422916 0)
(-0.000937647 0.000180197 0)
(-0.000969582 -9.12569e-05 0)
(-0.000878488 -0.000339778 0)
(-0.000684079 -0.000505487 0)
(-0.000428905 -0.000545799 0)
(-0.000183771 -0.00044143 0)
(-1.87565e-05 -0.000180997 0)
(1.94194e-05 -0.000302111 0)
(0.000195705 -0.000640089 0)
(0.000452089 -0.000744349 0)
(0.000711641 -0.000657039 0)
(0.000899545 -0.000396414 0)
(0.000971204 -3.246e-05 0)
(0.000904086 0.000367501 0)
(0.000709423 0.000703223 0)
(0.000422969 0.000939839 0)
(7.90134e-05 0.0010547 0)
(-0.000284388 0.00103872 0)
(-0.000622036 0.000892253 0)
(-0.000890889 0.000624825 0)
(-0.00105605 0.000277123 0)
(-0.00109253 -0.00012201 0)
(-0.000991913 -0.000491404 0)
(-0.000773408 -0.000746632 0)
(-0.000484923 -0.000819474 0)
(-0.000206288 -0.000665759 0)
(-1.96156e-05 -0.000282852 0)
(1.90789e-05 -0.000406925 0)
(0.000208664 -0.000871486 0)
(0.000492085 -0.00102294 0)
(0.000772198 -0.000888537 0)
(0.000965872 -0.000528156 0)
(0.00103292 -3.16451e-05 0)
(0.000959461 0.000505569 0)
(0.000754387 0.000955685 0)
(0.000449997 0.00126462 0)
(8.46609e-05 0.00142189 0)
(-0.000302328 0.00140262 0)
(-0.000662311 0.00120902 0)
(-0.000953126 0.000853485 0)
(-0.00114452 0.000394498 0)
(-0.00119336 -0.000155512 0)
(-0.00108116 -0.00065989 0)
(-0.000843603 -0.00101227 0)
(-0.000534349 -0.00112065 0)
(-0.000232353 -0.000916619 0)
(-2.38311e-05 -0.000397271 0)
(2.44716e-05 -0.000519912 0)
(0.000230196 -0.00112227 0)
(0.00052194 -0.00131499 0)
(0.000805488 -0.00112851 0)
(0.00100324 -0.000660453 0)
(0.00107147 -2.7678e-05 0)
(0.000997008 0.000647079 0)
(0.000790669 0.00121714 0)
(0.000477278 0.00160716 0)
(9.1794e-05 0.00181122 0)
(-0.000315172 0.00178733 0)
(-0.000690633 0.00154325 0)
(-0.00100102 0.00110592 0)
(-0.001195 0.000517695 0)
(-0.00123537 -0.000187245 0)
(-0.00112327 -0.000838556 0)
(-0.000879956 -0.00129196 0)
(-0.000563278 -0.00143621 0)
(-0.000248479 -0.00118871 0)
(-2.59236e-05 -0.000523482 0)
(1.87007e-05 -0.000638033 0)
(0.000225509 -0.00138659 0)
(0.000523291 -0.0016083 0)
(0.000806351 -0.00137118 0)
(0.00100172 -0.000792012 0)
(0.00106485 -2.08306e-05 0)
(0.000991547 0.000785715 0)
(0.000800185 0.00146892 0)
(0.00049077 0.00196461 0)
(9.3219e-05 0.00221806 0)
(-0.000322999 0.00218615 0)
(-0.000705522 0.00188863 0)
(-0.00101676 0.00136936 0)
(-0.0012109 0.000634465 0)
(-0.00124128 -0.00023136 0)
(-0.00111497 -0.00102175 0)
(-0.000872007 -0.00157566 0)
(-0.000556459 -0.00175711 0)
(-0.000245316 -0.00146599 0)
(-2.65186e-05 -0.000653571 0)
(3.10098e-05 -0.000759094 0)
(0.000230526 -0.00164146 0)
(0.000497992 -0.00189289 0)
(0.000762751 -0.00160564 0)
(0.000946798 -0.000915858 0)
(0.00100913 -1.14511e-05 0)
(0.000944507 0.00091575 0)
(0.000754617 0.0017142 0)
(0.000451238 0.00231895 0)
(7.35452e-05 0.0026219 0)
(-0.000324856 0.00258148 0)
(-0.000695128 0.00223255 0)
(-0.000979708 0.00160884 0)
(-0.00112851 0.000733326 0)
(-0.00114419 -0.000279099 0)
(-0.00103722 -0.00119578 0)
(-0.000820359 -0.00184342 0)
(-0.000531148 -0.00206928 0)
(-0.000231205 -0.00173838 0)
(-2.17379e-05 -0.000777949 0)
(1.84369e-05 -0.00086962 0)
(0.000180117 -0.00186273 0)
(0.000409007 -0.0021494 0)
(0.000644112 -0.00182417 0)
(0.000827612 -0.00104457 0)
(0.000909147 -1.60988e-05 0)
(0.000859208 0.00103623 0)
(0.000673044 0.00196323 0)
(0.000383469 0.00264961 0)
(4.39533e-05 0.00299357 0)
(-0.000313537 0.00295038 0)
(-0.000644845 0.00254895 0)
(-0.000892112 0.00181007 0)
(-0.00101323 0.000797726 0)
(-0.00100883 -0.000324384 0)
(-0.000896195 -0.00135549 0)
(-0.000697903 -0.00208085 0)
(-0.000450166 -0.00234623 0)
(-0.000198111 -0.00198864 0)
(-1.841e-05 -0.000890462 0)
(1.91377e-05 -0.000957255 0)
(0.000144807 -0.00203731 0)
(0.000310131 -0.00235672 0)
(0.000502762 -0.00202726 0)
(0.000677805 -0.00118493 0)
(0.000764507 -3.57883e-05 0)
(0.000726268 0.00114407 0)
(0.000565404 0.00219464 0)
(0.000312372 0.0029479 0)
(1.64957e-05 0.00331869 0)
(-0.000284441 0.0032712 0)
(-0.00055376 0.00281515 0)
(-0.000756031 0.00198296 0)
(-0.000858509 0.000847402 0)
(-0.000841486 -0.000386789 0)
(-0.000727903 -0.00150584 0)
(-0.00055153 -0.00229071 0)
(-0.000343857 -0.00257488 0)
(-0.000161645 -0.0021786 0)
(-2.72912e-05 -0.000989787 0)
(1.87283e-05 -0.00103096 0)
(0.000117209 -0.00216918 0)
(0.000244082 -0.00251535 0)
(0.000378819 -0.00218725 0)
(0.000491172 -0.00130124 0)
(0.000555718 -6.05162e-05 0)
(0.00052983 0.00123536 0)
(0.000400658 0.00238739 0)
(0.000201304 0.0031979 0)
(-2.47883e-05 0.00358299 0)
(-0.000248141 0.00352402 0)
(-0.000445781 0.00302122 0)
(-0.000589759 0.00211758 0)
(-0.000646065 0.000873112 0)
(-0.000602014 -0.000464011 0)
(-0.000485294 -0.00164692 0)
(-0.000345375 -0.00245714 0)
(-0.000203794 -0.00274913 0)
(-6.94237e-05 -0.00230924 0)
(3.92404e-06 -0.00105304 0)
(1.40548e-05 -0.00108364 0)
(5.54097e-05 -0.00224783 0)
(0.000106337 -0.00262034 0)
(0.000168127 -0.00227547 0)
(0.000218787 -0.00136904 0)
(0.000252876 -7.8358e-05 0)
(0.000237506 0.00130161 0)
(0.000165431 0.00251965 0)
(5.36758e-05 0.00337019 0)
(-7.96027e-05 0.00376371 0)
(-0.000209444 0.00369092 0)
(-0.000310335 0.00314758 0)
(-0.000362591 0.00218597 0)
(-0.000367069 0.000869192 0)
(-0.000318529 -0.000542082 0)
(-0.000231848 -0.00176003 0)
(-0.000150094 -0.00255958 0)
(-8.7476e-05 -0.00284872 0)
(-3.45646e-05 -0.0023883 0)
(-1.79807e-06 -0.00107675 0)
(-3.58696e-06 -0.00109707 0)
(-1.70938e-05 -0.00226081 0)
(-4.45773e-05 -0.00263682 0)
(-7.9663e-05 -0.00229058 0)
(-9.26285e-05 -0.0013898 0)
(-8.40901e-05 -8.83545e-05 0)
(-8.01199e-05 0.00133176 0)
(-9.54533e-05 0.00257562 0)
(-0.000119397 0.00344594 0)
(-0.000151891 0.00384765 0)
(-0.000182266 0.00375979 0)
(-0.000187416 0.0031787 0)
(-0.000149418 0.00217038 0)
(-8.84017e-05 0.000833776 0)
(-2.25277e-05 -0.00060789 0)
(2.8291e-05 -0.001822 0)
(5.71313e-05 -0.00260379 0)
(5.15321e-05 -0.00286313 0)
(1.64606e-05 -0.00239955 0)
(-1.64732e-06 -0.00108083 0)
(-7.90219e-06 -0.00106915 0)
(-8.08321e-05 -0.00220834 0)
(-0.000197548 -0.00255365 0)
(-0.000323805 -0.00222757 0)
(-0.000409816 -0.0013583 0)
(-0.000432596 -9.90625e-05 0)
(-0.000411903 0.00132591 0)
(-0.000370914 0.00255733 0)
(-0.0003064 0.0034229 0)
(-0.000228467 0.0038229 0)
(-0.000138778 0.00372183 0)
(-3.13398e-05 0.00311574 0)
(7.91458e-05 0.00208968 0)
(0.000187744 0.000753429 0)
(0.000266575 -0.000658245 0)
(0.000289828 -0.00184235 0)
(0.00027063 -0.00259396 0)
(0.000198258 -0.00280289 0)
(9.00163e-05 -0.0023354 0)
(8.35994e-06 -0.00105446 0)
(-1.4043e-05 -0.00100631 0)
(-0.00015253 -0.00207431 0)
(-0.000354429 -0.00238532 0)
(-0.000553604 -0.00209069 0)
(-0.000699107 -0.00127535 0)
(-0.000760475 -9.75607e-05 0)
(-0.000722069 0.00127347 0)
(-0.000618404 0.0024703 0)
(-0.000480942 0.00330886 0)
(-0.000303424 0.00368143 0)
(-0.000103302 0.00357355 0)
(9.32895e-05 0.00296449 0)
(0.000283095 0.00194659 0)
(0.000448308 0.000634655 0)
(0.000549384 -0.00070918 0)
(0.000556229 -0.00182357 0)
(0.000468695 -0.00251321 0)
(0.000317604 -0.00267488 0)
(0.000148338 -0.00220596 0)
(1.85971e-05 -0.000991061 0)
(-1.93683e-05 -0.000912141 0)
(-0.000205908 -0.00186541 0)
(-0.000476055 -0.00214368 0)
(-0.000751124 -0.00188119 0)
(-0.000962373 -0.00114435 0)
(-0.00106007 -7.4843e-05 0)
(-0.00101815 0.00117657 0)
(-0.000865438 0.0023191 0)
(-0.000645114 0.00310581 0)
(-0.000375407 0.00343967 0)
(-7.68803e-05 0.00332008 0)
(0.000222981 0.00272578 0)
(0.000497549 0.00172794 0)
(0.000714295 0.000483612 0)
(0.000813296 -0.000752791 0)
(0.000775178 -0.00175414 0)
(0.000627969 -0.00235867 0)
(0.000412472 -0.00247858 0)
(0.000186148 -0.00202496 0)
(2.11463e-05 -0.00090056 0)
(-2.34262e-05 -0.000795 0)
(-0.000238524 -0.00160798 0)
(-0.000551602 -0.00184041 0)
(-0.000878212 -0.00160656 0)
(-0.00113636 -0.000967574 0)
(-0.00127155 -2.8962e-05 0)
(-0.00124822 0.00106624 0)
(-0.0010651 0.00210142 0)
(-0.000777216 0.00282009 0)
(-0.000434999 0.00311578 0)
(-6.08221e-05 0.0029735 0)
(0.000316049 0.00239995 0)
(0.000647591 0.00145469 0)
(0.000875925 0.000320711 0)
(0.000958799 -0.000770188 0)
(0.00089474 -0.00164168 0)
(0.000712976 -0.00215432 0)
(0.000463125 -0.00223392 0)
(0.000206859 -0.00180581 0)
(2.2885e-05 -0.000795123 0)
(-2.34008e-05 -0.000666748 0)
(-0.000248612 -0.00132643 0)
(-0.000577355 -0.0015041 0)
(-0.000921092 -0.00129801 0)
(-0.00120118 -0.000757389 0)
(-0.00136268 4.5301e-05 0)
(-0.00136872 0.000972861 0)
(-0.00119816 0.00184857 0)
(-0.000881713 0.00247613 0)
(-0.000485113 0.00272461 0)
(-5.69287e-05 0.00256475 0)
(0.000360829 0.00202073 0)
(0.000707639 0.00116493 0)
(0.00092568 0.000171804 0)
(0.000989871 -0.00076911 0)
(0.000909357 -0.00150736 0)
(0.000717594 -0.00192979 0)
(0.000463015 -0.00197255 0)
(0.000206355 -0.00157424 0)
(2.3229e-05 -0.000684901 0)
(-2.02469e-05 -0.000540516 0)
(-0.000235818 -0.00104324 0)
(-0.000555245 -0.00116497 0)
(-0.000894458 -0.000981467 0)
(-0.0011819 -0.000527504 0)
(-0.00135827 0.000139572 0)
(-0.00137765 0.000900984 0)
(-0.00122447 0.00160468 0)
(-0.000918949 0.00210951 0)
(-0.000514503 0.002298 0)
(-7.46799e-05 0.0021294 0)
(0.000342665 0.00163119 0)
(0.000675603 0.000885693 0)
(0.00087608 3.8566e-05 0)
(0.000927699 -0.00075468 0)
(0.0008437 -0.00136817 0)
(0.000659518 -0.00170916 0)
(0.000421823 -0.00172087 0)
(0.000186655 -0.00135442 0)
(2.08596e-05 -0.000580308 0)
(-1.48519e-05 -0.000427379 0)
(-0.000206014 -0.000779272 0)
(-0.000498141 -0.000843553 0)
(-0.00081529 -0.000673713 0)
(-0.00109063 -0.000294131 0)
(-0.0012659 0.000242652 0)
(-0.00129546 0.00084191 0)
(-0.00116343 0.00138563 0)
(-0.000888518 0.00176242 0)
(-0.000516918 0.00188276 0)
(-0.000108676 0.0017092 0)
(0.000274181 0.00126555 0)
(0.000573364 0.000630643 0)
(0.000749508 -7.90436e-05 0)
(0.00079227 -0.000736675 0)
(0.000717329 -0.00123971 0)
(0.000557279 -0.00151041 0)
(0.000353015 -0.00149814 0)
(0.000154292 -0.00116306 0)
(1.69443e-05 -0.000490019 0)
(-7.55181e-06 -0.000336032 0)
(-0.000164445 -0.000550296 0)
(-0.000415737 -0.000556093 0)
(-0.00069342 -0.000392449 0)
(-0.000938721 -7.5313e-05 0)
(-0.00110109 0.000346152 0)
(-0.00113807 0.000800056 0)
(-0.00103284 0.00119865 0)
(-0.000802737 0.0014615 0)
(-0.000488832 0.00151697 0)
(-0.000142365 0.0013393 0)
(0.000182723 0.000945868 0)
(0.000435647 0.000409867 0)
(0.000584237 -0.000180525 0)
(0.000621254 -0.000721962 0)
(0.000561777 -0.00113376 0)
(0.000433889 -0.0013461 0)
(0.000271344 -0.0013165 0)
(0.000116385 -0.00101011 0)
(1.24458e-05 -0.000418747 0)
(3.05307e-06 -0.000271901 0)
(-0.000114299 -0.000365592 0)
(-0.000314961 -0.000314593 0)
(-0.000539478 -0.000154651 0)
(-0.000742411 0.000117379 0)
(-0.000885343 0.000443558 0)
(-0.000927159 0.000776459 0)
(-0.000848369 0.00104931 0)
(-0.000668386 0.0012198 0)
(-0.000424092 0.00121991 0)
(-0.000154968 0.0010407 0)
(0.000101345 0.000685754 0)
(0.00030285 0.000231054 0)
(0.000420477 -0.000265387 0)
(0.000450153 -0.000712947 0)
(0.000407165 -0.00105605 0)
(0.000313483 -0.00122117 0)
(0.000193385 -0.00118162 0)
(8.18174e-05 -0.000898236 0)
(9.04617e-06 -0.000366557 0)
(8.99298e-06 -0.000209238 0)
(-5.66598e-05 -0.000191644 0)
(-0.000201658 -8.48115e-05 0)
(-0.000359469 4.973e-05 0)
(-0.000510104 0.000282344 0)
(-0.00063291 0.000525629 0)
(-0.000678097 0.000766319 0)
(-0.0006184 0.000928246 0)
(-0.000483458 0.00103857 0)
(-0.000310087 0.000989877 0)
(-0.000122896 0.00082033 0)
(6.18777e-05 0.000490567 0)
(0.000210677 0.000109217 0)
(0.000292348 -0.000331359 0)
(0.000309333 -0.000707787 0)
(0.000279581 -0.00100846 0)
(0.000216747 -0.00113283 0)
(0.000130187 -0.00109098 0)
(5.46875e-05 -0.000823938 0)
(7.08635e-06 -0.000331128 0)
(3.7387e-05 -0.000308295 0)
(1.68478e-05 -0.000263805 0)
(-9.51258e-05 -7.80795e-05 0)
(-0.000187876 5.11958e-05 0)
(-0.000260493 0.000351284 0)
(-0.000346784 0.000542452 0)
(-0.00039273 0.000754177 0)
(-0.000337133 0.000800888 0)
(-0.00023576 0.000908761 0)
(-0.000130106 0.000798665 0)
(-1.9918e-05 0.00065292 0)
(9.42331e-05 0.000291147 0)
(0.000177313 -3.38245e-05 0)
(0.000207341 -0.000410972 0)
(0.000209882 -0.000702388 0)
(0.000192594 -0.000985639 0)
(0.000159474 -0.00106763 0)
(9.20868e-05 -0.00102359 0)
(4.27265e-05 -0.000769039 0)
(5.8552e-06 -0.000307832 0)
(7.31007e-06 -9.58226e-05 0)
(0.000109802 6.51782e-05 0)
(8.33062e-05 0.000308072 0)
(0.000128267 0.000395266 0)
(0.000131153 0.000703564 0)
(3.09867e-05 0.000850194 0)
(-5.32559e-05 0.000979889 0)
(3.04036e-06 0.000933398 0)
(8.35821e-05 0.00100655 0)
(0.000106833 0.000900506 0)
(0.000122587 0.000771801 0)
(0.000153113 0.000394732 0)
(0.000239997 0.000141824 0)
(0.000243822 -0.000281844 0)
(0.000187553 -0.000554399 0)
(0.000160689 -0.000901026 0)
(0.000158577 -0.00096047 0)
(8.93132e-05 -0.000907191 0)
(4.3449e-05 -0.000662053 0)
(1.8642e-05 -0.000236325 0)
(6.94285e-05 -0.00053181 0)
(0.00024944 -0.000725559 0)
(0.000207782 -0.000373939 0)
(0.000335944 -0.000254571 0)
(0.000438335 0.000127513 0)
(0.000356759 7.08016e-05 0)
(0.000251138 0.000424332 0)
(0.0003287 0.000320285 0)
(0.000445854 0.000484744 0)
(0.000459425 0.000212328 0)
(0.000376255 0.00036985 0)
(0.000364503 -5.10923e-05 0)
(0.0003099 -0.000208479 0)
(0.000192086 -0.000689555 0)
(9.88992e-05 -0.000815827 0)
(0.000109735 -0.00124925 0)
(0.000193468 -0.00123648 0)
(0.000127023 -0.00106638 0)
(5.06376e-05 -0.000731719 0)
(1.71388e-05 -0.000314311 0)
(-0.000193929 0.000353865 0)
(0.000380167 -0.000326063 0)
(0.000559512 0.000313002 0)
(0.000799655 0.000978927 0)
(0.000613001 0.0016262 0)
(0.000868384 0.00106869 0)
(0.000935708 0.00174248 0)
(0.000788131 0.00154005 0)
(0.000699394 0.00172284 0)
(0.000954066 0.00110788 0)
(0.000985759 0.0016705 0)
(0.000657744 0.000893712 0)
(0.000492952 0.000702705 0)
(0.000425488 0.000108915 0)
(0.000238499 0.00011795 0)
(0.000201964 -0.000908033 0)
(0.000412703 -0.000989311 0)
(0.000436895 -0.000399588 0)
(9.01573e-05 -8.73548e-05 0)
(-2.29094e-06 -0.000218868 0)
(-0.000789524 2.99033e-05 0)
(0.0003165 -0.00380413 0)
(0.00131561 -0.00233051 0)
(0.00173965 0.00033147 0)
(-0.000110005 0.000256518 0)
(0.00102176 -0.00257814 0)
(0.0017498 -0.000214827 0)
(0.00112612 0.00113215 0)
(0.000401785 -0.000369588 0)
(0.00154259 -0.00192445 0)
(0.00181414 0.000639164 0)
(0.000839831 0.000500481 0)
(0.000469612 -0.000779193 0)
(0.000732663 -0.00158346 0)
(8.18027e-05 -0.000220087 0)
(-0.000205866 -0.00215285 0)
(0.000823312 -0.00287565 0)
(0.0012105 -0.00122349 0)
(-0.000296787 7.61092e-05 0)
(-0.000561239 -0.0014907 0)
(-0.00294701 0.00347381 0)
(-0.00152187 -0.000556229 0)
(0.00473382 0.000318576 0)
(0.00295459 0.00564265 0)
(-0.00395333 0.00423731 0)
(-0.000548757 0.00107418 0)
(0.00522728 0.00254505 0)
(0.0014482 0.00555338 0)
(-0.00156881 0.00210979 0)
(0.00230085 0.0016167 0)
(0.00539582 0.00386021 0)
(0.000697742 0.0040715 0)
(0.000517773 0.00106678 0)
(0.00240364 0.00197776 0)
(0.00163285 0.00347298 0)
(-0.00136705 0.000189131 0)
(0.00302844 -0.00159727 0)
(0.00426301 0.00255133 0)
(-2.66448e-05 0.00391546 0)
(-0.00270073 -0.0011615 0)
(-0.000780171 0.00340562 0)
(-0.00473694 -0.0174338 0)
(0.00506768 -0.00945809 0)
(0.000183536 0.00591681 0)
(-0.000532234 0.00202763 0)
(-0.00408363 -0.0197542 0)
(0.000923669 -0.0030756 0)
(0.000381918 0.00505281 0)
(0.00234838 -0.00281262 0)
(0.000187156 -0.0145319 0)
(0.00192484 0.00226306 0)
(0.000528355 0.00311968 0)
(0.00573343 -0.00432666 0)
(0.00318799 -0.00676478 0)
(0.00159701 0.00523463 0)
(-0.00139181 -0.00493366 0)
(0.00803027 -0.00997133 0)
(0.00540975 0.000439808 0)
(0.000103821 0.00714308 0)
(-0.00416173 -0.00694686 0)
(0.00782465 0.0275924 0)
(-0.0027366 -0.038597 0)
(-0.00283787 -0.0252186 0)
(-0.00200743 0.0344841 0)
(0.00439 0.0174876 0)
(-0.00201049 -0.0326074 0)
(-0.00232426 -0.0122094 0)
(0.00314547 0.0278317 0)
(0.0049904 0.000885486 0)
(0.000646564 -0.0219976 0)
(0.000274241 0.00419176 0)
(0.00579774 0.0128349 0)
(0.00739627 -0.00700322 0)
(0.00222056 -0.00554839 0)
(0.00359009 0.0165994 0)
(0.00538825 -0.00713941 0)
(0.00391425 -0.0221624 0)
(-0.000860715 0.0111912 0)
(0.00321031 0.0265373 0)
(0.00163336 -0.0135517 0)
(0.00234534 0.00721919 0)
(-0.00350023 -0.00421479 0)
(-0.00525244 -0.00472682 0)
(-0.00807525 0.0120941 0)
(-0.0073814 0.00615098 0)
(-0.00298351 -0.000501847 0)
(-0.00144802 -0.011169 0)
(4.27202e-05 0.00523631 0)
(0.000821716 -0.000584371 0)
(0.0067115 -0.00271682 0)
(0.0149052 -0.00239158 0)
(0.0115708 0.00335462 0)
(0.00534903 -0.00115176 0)
(0.00921747 0.00320416 0)
(0.0158607 0.00287893 0)
(0.0132712 -0.00125756 0)
(0.00122115 -0.00215498 0)
(-0.000580081 0.00754067 0)
(0.00354706 0.0115238 0)
(0.00273459 -0.00107227 0)
(0.000476448 0.0105192 0)
(-0.00108397 -0.00293853 0)
(-0.00334851 -0.00748253 0)
(-0.0014714 0.0114834 0)
(0.00111316 -0.00156834 0)
(0.00124659 -0.00508049 0)
(0.000242211 -0.0127133 0)
(0.000794757 0.00335429 0)
(0.0036598 -0.00556511 0)
(0.00342922 -0.00935511 0)
(0.00130337 -0.00850383 0)
(0.00369088 0.010527 0)
(0.00623577 -0.00296707 0)
(0.00497341 -0.000914291 0)
(0.00298518 -0.00195855 0)
(0.00205661 0.00814877 0)
(0.00172279 0.00128026 0)
(-0.000257222 0.00410595 0)
(0.000267055 0.00729825 0)
(0.000560791 0.00159438 0)
(0.00143295 0.00238909 0)
(0.00223046 0.00195648 0)
(-0.000589138 -0.000947714 0)
(2.48545e-05 0.00133531 0)
(0.00253538 -0.00281303 0)
(0.00306667 -0.00299426 0)
(0.00126124 -0.00754213 0)
(0.00103014 -0.00451478 0)
(0.00280575 -0.00595056 0)
(0.0017355 -0.00544092 0)
(-0.000474714 -0.0047604 0)
(0.00073446 0.00160759 0)
(0.00257121 -0.000920582 0)
(0.00146996 0.000955073 0)
(7.589e-05 0.00099606 0)
(-0.000105218 0.00489962 0)
(-0.000193923 0.00410246 0)
(-0.00105114 0.00489938 0)
(-0.000420747 0.00523146 0)
(0.000133126 0.00246176 0)
(0.000400054 0.0020659 0)
(0.00177511 0.00129589 0)
(0.00132144 -6.64923e-05 0)
(0.00141647 0.000258182 0)
(0.00219758 -0.00175479 0)
(0.00260811 -0.00337644 0)
(0.00193157 -0.00571788 0)
(0.00119079 -0.00455594 0)
(0.00113883 -0.00478896 0)
(0.000482087 -0.00439561 0)
(-0.000502338 -0.00329547 0)
(-0.000427808 -0.000302358 0)
(-4.07601e-05 6.84393e-05 0)
(-0.000472218 0.00139089 0)
(-0.000958862 0.00248881 0)
(-0.00114027 0.00418012 0)
(-0.00111002 0.00451834 0)
(-0.00115021 0.00499796 0)
(-0.000602446 0.00477478 0)
(-4.99928e-05 0.002293 0)
(0.000193076 0.00104019 0)
(0.00120875 0.00091218 0)
(0.00147605 1.10675e-05 0)
(0.00168523 -0.000616112 0)
(0.00195307 -0.00197078 0)
(0.00207682 -0.00320348 0)
(0.00161685 -0.00459387 0)
(0.000878711 -0.00448 0)
(0.000384054 -0.00424029 0)
(-0.000162771 -0.00350625 0)
(-0.000768702 -0.00251601 0)
(-0.00104345 -0.000801804 0)
(-0.00110223 0.000305132 0)
(-0.00127771 0.00170044 0)
(-0.00142576 0.00281691 0)
(-0.00147787 0.00394693 0)
(-0.00135049 0.00451512 0)
(-0.00110759 0.00471199 0)
(-0.000582506 0.00410481 0)
(-8.14103e-05 0.00201962 0)
(8.62601e-05 0.000482374 0)
(0.000754519 0.000338917 0)
(0.00112824 -0.00025346 0)
(0.00137634 -0.000992126 0)
(0.00151494 -0.00203879 0)
(0.00149135 -0.00301639 0)
(0.00111449 -0.00391624 0)
(0.000525175 -0.00400278 0)
(1.47066e-05 -0.00369071 0)
(-0.000454547 -0.00296207 0)
(-0.000902228 -0.00202924 0)
(-0.00120525 -0.00074385 0)
(-0.00135668 0.000478847 0)
(-0.00144913 0.00179412 0)
(-0.00148276 0.00287796 0)
(-0.00144665 0.0037943 0)
(-0.00127069 0.00429716 0)
(-0.000956677 0.00430563 0)
(-0.000495431 0.00356179 0)
(-7.10401e-05 0.00172997 0)
(3.22289e-05 0.000118319 0)
(0.000384727 -0.000127248 0)
(0.000657731 -0.00055368 0)
(0.000871459 -0.00119648 0)
(0.000944312 -0.00202975 0)
(0.000887784 -0.00282785 0)
(0.000637561 -0.00345864 0)
(0.000254088 -0.00355881 0)
(-0.000119173 -0.00323787 0)
(-0.000460701 -0.00254963 0)
(-0.000783867 -0.00165039 0)
(-0.00103254 -0.00055723 0)
(-0.00121211 0.000629139 0)
(-0.00129112 0.00184842 0)
(-0.00131027 0.00285894 0)
(-0.00125301 0.0036284 0)
(-0.00107906 0.00401564 0)
(-0.000785523 0.00389099 0)
(-0.000408188 0.00309418 0)
(-5.86849e-05 0.00146547 0)
(1.34929e-05 7.79073e-05 0)
(0.000146952 -0.000158049 0)
(0.000210776 -0.00080199 0)
(0.000297617 -0.00132999 0)
(0.000319765 -0.00203783 0)
(0.000293111 -0.00271851 0)
(0.000203079 -0.00321698 0)
(6.72622e-05 -0.00329706 0)
(-7.39092e-05 -0.0029638 0)
(-0.000216391 -0.00227049 0)
(-0.000375893 -0.00134926 0)
(-0.000537472 -0.00032693 0)
(-0.000944401 0.00084887 0)
(-0.00107938 0.00199104 0)
(-0.0011251 0.00288627 0)
(-0.00107519 0.0035257 0)
(-0.000921433 0.00379933 0)
(-0.00067322 0.00357825 0)
(-0.000368721 0.00275031 0)
(-7.60122e-05 0.0012475 0)
)
;

boundaryField
{
    top
    {
        type            pressureInletOutletVelocity;
        value           nonuniform List<vector> 
20
(
(1.34929e-05 7.79073e-05 0)
(0 -0.000158049 0)
(0 -0.00080199 0)
(0 -0.00132999 0)
(0 -0.00203783 0)
(0 -0.00271851 0)
(0 -0.00321698 0)
(0 -0.00329706 0)
(0 -0.0029638 0)
(0 -0.00227049 0)
(0 -0.00134926 0)
(0 -0.00032693 0)
(-0.000944401 0.00084887 0)
(-0.00107938 0.00199104 0)
(-0.0011251 0.00288627 0)
(-0.00107519 0.0035257 0)
(-0.000921433 0.00379933 0)
(-0.00067322 0.00357825 0)
(-0.000368721 0.00275031 0)
(-7.60122e-05 0.0012475 0)
)
;
    }
    left
    {
        type            noSlip;
    }
    right
    {
        type            noSlip;
    }
    bottom
    {
        type            noSlip;
    }
    front
    {
        type            empty;
    }
    back
    {
        type            empty;
    }
    frontAndBack
    {
        type            empty;
    }
}


// ************************************************************************* //
