/*--------------------------------*- C++ -*----------------------------------*\
  =========                 |
  \\      /  F ield         | OpenFOAM: The Open Source CFD Toolbox
   \\    /   O peration     | Website:  https://openfoam.org
    \\  /    A nd           | Version:  10
     \\/     M anipulation  |
\*---------------------------------------------------------------------------*/
FoamFile
{
    format      ascii;
    class       volScalarField;
    location    "0.09";
    object      alpha.water;
}
// * * * * * * * * * * * * * * * * * * * * * * * * * * * * * * * * * * * * * //

dimensions      [0 0 0 0 0 0 0];

internalField   nonuniform List<scalar> 
800
(
0.999987
0.999986
0.999985
0.999985
0.999983
0.999984
0.999985
0.999985
0.999985
0.999985
0.999985
0.999985
0.999984
0.999983
0.999985
0.999985
0.999985
0.999981
0.999984
0.999991
0.999986
0.999984
0.999981
0.999981
0.999981
0.999982
0.999985
0.999983
0.999982
0.999984
0.999985
0.999983
0.999982
0.999982
0.999984
0.999985
0.999981
0.999981
0.999982
0.999992
0.999985
0.999981
0.999981
0.999981
0.999981
0.999982
0.999982
0.999982
0.999982
0.999982
0.999982
0.999982
0.999982
0.999982
0.999984
0.999982
0.999981
0.999981
0.999981
0.999992
0.999981
0.999981
0.999981
0.999982
0.999981
0.999981
0.999983
0.999982
0.999982
0.999982
0.999982
0.999982
0.999982
0.999986
0.999981
0.999981
0.999981
0.999981
0.999986
0.999992
0.999985
0.999987
0.999985
0.999981
0.999981
0.999982
0.999984
0.999982
0.999982
0.999982
0.999982
0.999982
0.999982
0.999987
0.999981
0.999981
0.999981
0.999981
0.999988
0.999993
0.999987
0.999987
0.999987
0.999981
0.999981
0.999981
0.999984
0.999988
0.999982
0.999982
0.999982
0.999982
0.999984
0.999988
0.999982
0.999981
0.999981
0.999981
0.999986
0.999993
0.999987
0.999985
0.999981
0.999981
0.999981
0.999981
0.999986
0.999989
0.999982
0.999982
0.999982
0.999983
0.999988
0.999988
0.999981
0.999981
0.999981
0.999981
0.999986
0.999993
0.999986
0.999981
0.999981
0.999981
0.999981
0.999983
0.999989
0.999989
0.999982
0.999982
0.999982
0.999982
0.999988
0.999988
0.999981
0.999981
0.999981
0.999981
0.999991
0.999993
0.999981
0.999981
0.999981
0.999982
0.999989
0.999992
0.999989
0.999982
0.999982
0.999982
0.999982
0.999982
0.999988
0.99999
0.999988
0.999984
0.999986
0.99999
0.999988
0.999993
0.999984
0.999986
0.999988
0.999992
0.999992
0.999992
0.999984
0.999982
0.999982
0.999984
0.999983
0.999982
0.999984
0.99999
0.999992
0.999992
0.999992
0.999992
0.999987
0.999993
0.999992
0.999993
0.999993
0.999992
0.999992
0.999989
0.999982
0.999982
0.999986
0.999987
0.999987
0.999987
0.999984
0.999984
0.999992
0.999992
0.999992
0.999987
0.999987
0.999994
0.999993
0.999993
0.999992
0.999986
0.999986
0.999986
0.999982
0.999982
0.999987
0.999987
0.999987
0.999987
0.999984
0.999984
0.999987
0.999991
0.999992
0.999987
0.999987
0.999995
0.99999
0.999993
0.999992
0.999991
0.999986
0.999988
0.999984
0.999982
0.999987
0.999987
0.999987
0.999986
0.999984
0.999986
0.999986
0.999986
0.999992
0.999987
0.99999
0.999995
0.99999
0.999992
0.999995
0.999995
0.999986
0.999989
0.999992
0.999982
0.999986
0.999987
0.999987
0.999984
0.999984
0.999993
0.999989
0.99999
0.999991
0.999996
0.999995
0.999995
0.999992
0.999992
0.999995
0.999994
0.99999
0.999989
0.999995
0.999984
0.999984
0.999987
0.999986
0.999984
0.999989
0.999994
0.999989
0.999994
0.999995
0.999996
0.999996
0.999997
0.999995
0.999996
0.999997
0.999995
0.999993
0.999989
0.999995
0.99999
0.999984
0.999984
0.999984
0.999984
0.999994
0.999994
0.999989
0.999994
0.999998
0.999997
0.999996
0.999998
0.999996
0.999998
0.999998
0.999998
0.999994
0.999989
0.999995
0.999994
0.999984
0.999984
0.999984
0.999985
0.999993
0.999993
0.999994
0.999997
0.999998
0.999999
0.999998
0.999998
0.999997
0.999998
0.999999
0.999998
0.999995
0.99999
0.999993
0.999997
0.999988
0.999984
0.999986
0.999995
0.999996
0.999993
0.999995
0.999998
0.999999
0.999999
0.999999
0.999999
0.999998
0.999999
0.999999
0.999999
0.999997
0.999994
0.999994
0.999998
0.999998
0.999995
0.999997
0.999998
0.999997
0.999996
0.999998
0.999999
1
1
0.999999
1
0.999999
1
1
0.999999
0.999999
0.999998
0.999998
0.999998
0.999999
0.999999
0.999999
0.999999
0.999999
0.999998
0.999999
1
1
1
1
1
1
1
1
1
1
1
1
1
1
1
1
1
1
1
1
1
1
1
1
1
1
1
1
1
1
1
1
1
1
1
1
1
1
1
1
1
1
1
1
1
1
1
1
1
1
1
1
1
1
1
1
1
1
1
1
1
1
1
1
1
1
1
1
1
1
1
1
1
1
1
1
1
1
1
1
1
1
1
1
1
1
1
1
1
1
1
1
1
1
1
1
1
1
1
1
1
1
1
1
1
1
1
1
1
1
1
1
1
1
1
1
1
1
1
1
1
1
1
1
1
1
1
1
1
1
1
1
1
1
1
1
1
1
1
1
1
1
1
0.999999
1
1
1
1
0.999999
1
0.999997
1
1
1
1
1
1
0.999999
1
0.999991
1
0.999993
0.999999
1
1
1
1
1
0.999999
1
0.999999
0.999998
0.999999
1
1
0.999997
0.999997
0.999999
1
0.999998
0.999999
0.999999
1
1
1
0.875432
0.875316
0.872384
0.87316
0.874925
0.873169
0.866487
0.867404
0.87632
0.874064
0.863076
0.862046
0.871319
0.870932
0.864802
0.864898
0.870823
0.873733
0.873575
0.873934
0.12864
0.127456
0.12661
0.125722
0.132945
0.129813
0.123048
0.122173
0.136116
0.133888
0.11878
0.120338
0.133989
0.136205
0.125724
0.127086
0.133028
0.135245
0.134695
0.135031
1.38655e-06
3.55398e-07
1.64528e-06
1.28756e-06
4.73075e-05
6.58608e-06
1.97511e-05
1.96014e-06
0.000155128
9.70516e-05
1.96339e-06
3.01713e-06
0.000105192
0.000121551
1.70883e-05
3.10707e-06
3.59308e-05
2.86947e-05
5.21596e-05
6.56363e-06
6.38997e-07
1.35323e-07
1.57603e-06
1.21384e-06
2.5114e-05
9.96725e-07
1.76684e-05
5.72349e-07
1.06963e-05
2.58902e-06
3.37514e-08
1.38072e-06
5.35656e-06
3.17816e-05
1.63823e-05
2.48926e-06
3.40306e-05
9.11648e-06
9.8471e-06
6.44025e-06
1.21407e-08
1.92876e-09
6.69658e-08
1.39852e-07
1.05569e-07
5.03881e-07
6.4198e-12
2.96995e-09
5.87713e-09
1.13452e-06
2.33825e-08
7.39946e-07
3.08021e-07
8.13177e-09
1.84185e-06
3.74761e-08
7.6364e-07
1.39572e-07
1.5525e-07
1.35072e-07
3.64585e-09
3.36024e-10
8.68519e-10
1.00125e-15
9.17083e-16
9.17281e-16
4.11859e-13
1.00351e-08
5.45106e-11
7.58558e-10
1.56158e-09
2.2433e-08
5.58003e-08
5.34722e-09
3.30266e-08
1.54854e-09
2.16689e-08
3.06371e-09
1.3628e-09
1.30838e-09
2.99195e-13
6.63029e-16
7.54419e-16
9.17083e-16
9.17083e-16
9.17083e-16
1.85733e-13
2.99264e-13
2.98896e-12
7.56753e-10
1.56093e-09
3.23184e-10
2.4825e-10
1.97591e-10
2.94572e-10
1.0824e-10
1.8723e-10
3.09897e-11
3.30543e-11
2.39482e-12
4.52015e-16
6.62973e-16
8.81813e-16
1.10288e-15
9.17751e-16
9.45092e-16
1.88581e-13
2.55197e-11
1.11418e-11
2.18087e-11
3.28381e-11
4.72226e-11
3.72127e-11
2.35036e-12
1.72019e-12
1.6559e-12
1.81895e-12
3.06298e-12
1.2975e-12
2.63286e-14
4.52032e-16
1.71046e-15
1.2082e-14
2.19057e-14
1.08608e-15
4.646e-15
5.73723e-14
5.27693e-13
4.25323e-13
3.19599e-13
5.75392e-13
1.53759e-12
2.33488e-12
9.36455e-13
5.97984e-13
5.42548e-13
7.36378e-13
1.56646e-13
1.09841e-14
2.16279e-14
3.14492e-17
2.17815e-16
1.43309e-16
5.3015e-17
2.3308e-18
3.41141e-18
2.74487e-16
5.48407e-15
3.58515e-14
1.02407e-13
2.15809e-13
3.70816e-13
4.17331e-13
1.959e-13
5.92507e-14
5.44098e-14
6.76596e-14
1.41658e-14
3.06898e-15
1.19738e-15
3.91355e-18
2.19081e-18
4.28615e-19
1.67954e-19
3.028e-20
3.45519e-20
3.08781e-19
4.51767e-17
1.36511e-15
1.15945e-14
3.56372e-14
5.58914e-14
3.38897e-14
9.2879e-15
1.57594e-15
1.34668e-15
1.04803e-15
4.16575e-16
2.17381e-16
2.09465e-16
)
;

boundaryField
{
    top
    {
        type            inletOutlet;
        inletValue      uniform 0;
        value           nonuniform List<scalar> 
20
(
0
0
0
0
0
0
0
0
0
0
3.56372e-14
5.58914e-14
3.38897e-14
9.2879e-15
1.57594e-15
1.34668e-15
1.04803e-15
4.16575e-16
2.17381e-16
2.09465e-16
)
;
    }
    left
    {
        type            zeroGradient;
    }
    right
    {
        type            zeroGradient;
    }
    bottom
    {
        type            zeroGradient;
    }
    front
    {
        type            empty;
    }
    back
    {
        type            empty;
    }
    frontAndBack
    {
        type            empty;
    }
}


// ************************************************************************* //
