/*--------------------------------*- C++ -*----------------------------------*\
  =========                 |
  \\      /  F ield         | OpenFOAM: The Open Source CFD Toolbox
   \\    /   O peration     | Website:  https://openfoam.org
    \\  /    A nd           | Version:  10
     \\/     M anipulation  |
\*---------------------------------------------------------------------------*/
FoamFile
{
    format      ascii;
    class       surfaceScalarField;
    location    "0.09";
    object      alphaPhi.water;
}
// * * * * * * * * * * * * * * * * * * * * * * * * * * * * * * * * * * * * * //

dimensions      [0 3 -1 0 0 0 0];

internalField   nonuniform List<scalar> 
1540
(
6.1137e-14
-6.10235e-14
2.1701e-13
-1.55746e-13
4.80673e-13
-2.63532e-13
7.34349e-13
-2.53546e-13
8.65585e-13
-1.31088e-13
8.82102e-13
-1.63854e-14
7.44023e-13
1.38211e-13
5.18366e-13
2.25792e-13
1.94384e-13
3.24115e-13
-1.52906e-13
3.47422e-13
-4.73752e-13
3.20981e-13
-7.6137e-13
2.87753e-13
-9.81926e-13
2.20689e-13
-1.10412e-12
1.22324e-13
-1.00316e-12
-1.00829e-13
-7.70778e-13
-2.32244e-13
-4.57077e-13
-3.13571e-13
-2.38382e-13
-2.18543e-13
-3.65954e-14
-2.01641e-13
-3.65211e-14
2.29081e-13
-2.8998e-13
6.91438e-13
-6.17959e-13
1.2385e-12
-8.10444e-13
1.70706e-12
-7.21954e-13
2.00427e-12
-4.28144e-13
2.02877e-12
-4.07379e-14
1.67283e-12
4.94298e-13
1.12985e-12
7.68916e-13
3.89356e-13
1.06475e-12
-3.77108e-13
1.11403e-12
-1.1249e-12
1.06891e-12
-1.78793e-12
9.50937e-13
-2.28173e-12
7.14635e-13
-2.45285e-12
2.936e-13
-2.29678e-12
-2.56765e-13
-1.89507e-12
-6.33817e-13
-1.34895e-12
-8.59543e-13
-7.01192e-13
-8.66147e-13
-2.01151e-13
-7.01527e-13
-2.37598e-13
3.45733e-13
-6.35578e-13
1.05411e-12
-1.32618e-12
1.74723e-12
-1.50342e-12
2.3498e-12
-1.32437e-12
2.67606e-12
-7.54255e-13
2.63347e-12
2.00363e-15
2.30368e-12
8.24241e-13
1.54729e-12
1.52546e-12
6.03368e-13
2.00883e-12
-4.83255e-13
2.20081e-12
-1.56047e-12
2.14628e-12
-2.46833e-12
1.85894e-12
-3.0984e-12
1.34486e-12
-3.3112e-12
5.06552e-13
-3.2124e-12
-3.55427e-13
-2.68508e-12
-1.16097e-12
-1.89735e-12
-1.64712e-12
-1.03076e-12
-1.73259e-12
-3.14722e-13
-1.4174e-12
-5.52249e-13
4.62722e-13
-1.09816e-12
1.25874e-12
-2.12205e-12
2.07538e-12
-2.3199e-12
2.7735e-12
-2.02234e-12
3.16725e-12
-1.14786e-12
3.1309e-12
3.85106e-14
2.64973e-12
1.30555e-12
1.79255e-12
2.38279e-12
6.66894e-13
3.13464e-12
-5.90103e-13
3.45796e-12
-1.82415e-12
3.38047e-12
-2.86654e-12
2.90148e-12
-3.54385e-12
2.02232e-12
-3.91892e-12
8.81766e-13
-3.77995e-12
-4.94245e-13
-3.1896e-12
-1.75116e-12
-2.25538e-12
-2.58119e-12
-1.20387e-12
-2.78395e-12
-3.8049e-13
-2.24065e-12
-9.32669e-13
3.26985e-13
-1.42502e-12
1.16319e-12
-2.95814e-12
2.17343e-12
-3.33001e-12
3.01012e-12
-2.85887e-12
3.4656e-12
-1.60319e-12
3.43494e-12
6.93147e-14
2.83029e-12
1.91036e-12
1.91484e-12
3.29839e-12
6.65946e-13
4.38369e-12
-7.04774e-13
4.82882e-12
-2.05555e-12
4.7314e-12
-3.23687e-12
4.08294e-12
-4.07749e-12
2.86309e-12
-4.49328e-12
1.29767e-12
-4.30825e-12
-6.7912e-13
-3.60555e-12
-2.45371e-12
-2.54397e-12
-3.64263e-12
-1.34541e-12
-3.98236e-12
-4.07691e-13
-3.17824e-12
-1.34029e-12
3.71597e-13
-1.79649e-12
1.25664e-12
-3.84305e-12
2.37434e-12
-4.44759e-12
3.24659e-12
-3.73098e-12
3.68876e-12
-2.04521e-12
3.59416e-12
1.6406e-13
2.99268e-12
2.51201e-12
1.918e-12
4.37321e-12
6.18784e-13
5.68304e-12
-7.96517e-13
6.24427e-12
-2.20696e-12
6.142e-12
-3.47496e-12
5.35108e-12
-4.42362e-12
3.81189e-12
-4.96007e-12
1.83427e-12
-4.68162e-12
-9.57433e-13
-3.91971e-12
-3.21546e-12
-2.79835e-12
-4.76383e-12
-1.53571e-12
-5.24486e-12
-4.81506e-13
-4.2323e-12
-1.82174e-12
4.79959e-13
-2.27633e-12
1.44148e-12
-4.80443e-12
2.55283e-12
-5.5588e-12
3.44623e-12
-4.62423e-12
3.86133e-12
-2.46016e-12
3.68994e-12
3.35594e-13
3.03822e-12
3.16389e-12
1.86569e-12
5.54584e-12
6.54685e-13
6.89417e-12
-8.14899e-13
7.71399e-12
-2.25156e-12
7.57881e-12
-3.49026e-12
6.58989e-12
-4.45638e-12
4.77811e-12
-4.84081e-12
2.21886e-12
-4.74077e-12
-1.05733e-12
-4.04185e-12
-3.91424e-12
-2.94301e-12
-5.86253e-12
-1.65714e-12
-6.53059e-12
-5.16986e-13
-5.37234e-12
-2.33866e-12
4.70639e-13
-2.74685e-12
1.55625e-12
-5.8899e-12
2.66556e-12
-6.66796e-12
3.58229e-12
-5.54082e-12
4.04679e-12
-2.92452e-12
3.94787e-12
4.34678e-13
3.2533e-12
3.85854e-12
2.29372e-12
6.50549e-12
8.27461e-13
8.36056e-12
-7.58758e-13
9.30036e-12
-2.26411e-12
9.08431e-12
-3.40429e-12
7.73019e-12
-4.40519e-12
5.77911e-12
-4.81852e-12
2.63233e-12
-4.71122e-12
-1.16448e-12
-4.02265e-12
-4.60266e-12
-2.9807e-12
-6.90434e-12
-1.6641e-12
-7.84704e-12
-5.34706e-13
-6.50163e-12
-2.87331e-12
5.54105e-13
-3.30082e-12
1.53758e-12
-6.87324e-12
2.57676e-12
-7.70701e-12
3.51641e-12
-6.48033e-12
3.94494e-12
-3.35294e-12
3.99728e-12
3.82432e-13
3.55707e-12
4.29883e-12
2.52533e-12
7.53736e-12
9.8901e-13
9.89701e-12
-7.47968e-13
1.10375e-11
-2.39062e-12
1.07271e-11
-3.79276e-12
9.13246e-12
-4.45786e-12
6.44431e-12
-4.76153e-12
2.93603e-12
-4.61893e-12
-1.30695e-12
-3.85215e-12
-5.36936e-12
-2.82835e-12
-7.92811e-12
-1.63502e-12
-9.04031e-12
-4.66166e-13
-7.67035e-12
-3.33942e-12
4.40433e-13
-3.74114e-12
1.3281e-12
-7.76088e-12
2.24486e-12
-8.62371e-12
3.097e-12
-7.33238e-12
3.76411e-12
-4.01998e-12
3.83867e-12
3.07956e-13
3.53184e-12
4.60576e-12
2.55181e-12
8.51752e-12
1.02481e-12
1.14241e-11
-6.60517e-13
1.2723e-11
-2.29527e-12
1.2362e-11
-3.58259e-12
1.042e-11
-4.33145e-12
7.19327e-12
-4.52781e-12
3.13242e-12
-4.2342e-12
-1.60044e-12
-3.57859e-12
-6.02486e-12
-2.49769e-12
-9.0089e-12
-1.3576e-12
-1.01803e-11
-5.56419e-13
-8.47142e-12
-3.89578e-12
3.31447e-13
-4.07252e-12
1.0829e-12
-8.51224e-12
2.02119e-12
-9.56189e-12
2.8664e-12
-8.17753e-12
3.55877e-12
-4.71228e-12
3.70715e-12
1.59673e-13
3.27259e-12
5.04044e-12
2.2386e-12
9.55163e-12
8.98828e-13
1.27641e-11
-6.1048e-13
1.42324e-11
-2.06445e-12
1.38161e-11
-3.24785e-12
1.16035e-11
-4.08709e-12
8.03261e-12
-4.18043e-12
3.22587e-12
-3.81168e-12
-1.96913e-12
-3.04834e-12
-6.78809e-12
-2.09585e-12
-9.96128e-12
-1.1657e-12
-1.11103e-11
-3.29085e-13
-9.30792e-12
-4.22482e-12
3.86584e-13
-4.45904e-12
1.02518e-12
-9.15074e-12
1.91099e-12
-1.04476e-11
2.66549e-12
-8.93192e-12
3.14918e-12
-5.19587e-12
3.33621e-12
-2.72483e-14
2.84274e-12
5.53403e-12
1.94641e-12
1.04481e-11
6.56136e-13
1.40544e-11
-6.63651e-13
1.55523e-11
-1.93974e-12
1.50923e-11
-3.04073e-12
1.27046e-11
-3.65822e-12
8.6502e-12
-3.7345e-12
3.30225e-12
-3.24138e-12
-2.46215e-12
-2.55006e-12
-7.47935e-12
-1.6576e-12
-1.08536e-11
-9.06444e-13
-1.18614e-11
-2.12538e-13
-1.00017e-11
-4.43732e-12
2.51762e-13
-4.71072e-12
7.77147e-13
-9.67603e-12
1.31029e-12
-1.09807e-11
1.7838e-12
-9.4054e-12
2.1651e-12
-5.57706e-12
2.26318e-12
-1.25241e-13
1.89284e-12
5.90453e-12
1.06987e-12
1.12711e-11
1.83844e-13
1.49406e-11
-7.35961e-13
1.64721e-11
-1.6229e-12
1.59793e-11
-2.34518e-12
1.34269e-11
-2.84669e-12
9.15181e-12
-2.90956e-12
3.36524e-12
-2.55652e-12
-2.81506e-12
-1.94037e-12
-8.09537e-12
-1.35437e-12
-1.14395e-11
-7.71324e-13
-1.24444e-11
-2.87504e-13
-1.04855e-11
-4.72478e-12
1.21412e-13
-4.83206e-12
3.82634e-13
-9.93716e-12
5.8167e-13
-1.11797e-11
7.52131e-13
-9.57581e-12
9.44848e-13
-5.76969e-12
9.09956e-13
-9.02753e-14
6.05675e-13
6.2089e-12
2.05346e-13
1.16716e-11
-2.87381e-13
1.54333e-11
-7.61828e-13
1.69466e-11
-1.21965e-12
1.64372e-11
-1.50459e-12
1.37119e-11
-1.69609e-12
9.34339e-12
-1.63883e-12
3.30805e-12
-1.34225e-12
-3.11157e-12
-1.06865e-12
-8.36895e-12
-6.37121e-13
-1.1871e-11
-3.09071e-13
-1.27724e-11
-1.36439e-13
-1.06581e-11
-4.86118e-12
-3.40926e-14
-4.79791e-12
-1.23732e-13
-9.84746e-12
-2.94219e-13
-1.10091e-11
-3.32841e-13
-9.53712e-12
-5.09064e-13
-5.59345e-12
-5.00714e-13
-9.85744e-14
-5.61403e-13
6.26963e-12
-6.93421e-13
1.18037e-11
-7.20308e-13
1.54602e-11
-7.89331e-13
1.70157e-11
-8.54467e-13
1.65023e-11
-8.52419e-13
1.371e-11
-4.99182e-13
8.99027e-12
-2.79667e-13
3.08857e-12
-8.23998e-14
-3.30878e-12
1.18027e-13
-8.56936e-12
1.53655e-13
-1.19066e-11
1.39303e-13
-1.2758e-11
6.97958e-14
-1.05885e-11
-4.79139e-12
-1.9989e-13
-4.598e-12
-7.09795e-13
-9.33759e-12
-1.17361e-12
-1.05453e-11
-1.58242e-12
-9.1283e-12
-1.83227e-12
-5.34358e-12
-1.88286e-12
-4.7944e-14
-1.82084e-12
6.20763e-12
-1.46881e-12
1.14518e-11
-1.13731e-12
1.51288e-11
-7.87636e-13
1.6666e-11
-3.38613e-13
1.60533e-11
1.71254e-13
1.32002e-11
5.69424e-13
8.59213e-12
9.88655e-13
2.66937e-12
1.22748e-12
-3.54759e-12
1.2866e-12
-8.62846e-12
1.02111e-12
-1.16412e-11
5.96999e-13
-1.23339e-11
1.99744e-13
-1.01913e-11
-4.59164e-12
-3.63939e-13
-4.23405e-12
-1.13846e-12
-8.56306e-12
-1.97421e-12
-9.70959e-12
-2.71356e-12
-8.38896e-12
-3.06636e-12
-4.99077e-12
-3.10634e-12
-7.94195e-15
-2.73768e-12
5.83899e-12
-2.27434e-12
1.09885e-11
-1.54617e-12
1.44006e-11
-6.66689e-13
1.57866e-11
2.05701e-13
1.5181e-11
9.72196e-13
1.24338e-11
1.83898e-12
7.72538e-12
2.51087e-12
1.9975e-12
2.64593e-12
-3.68266e-12
2.34558e-12
-8.32811e-12
1.79051e-12
-1.10861e-11
1.05193e-12
-1.15953e-11
3.32985e-13
-9.47236e-12
-4.25866e-12
-4.72934e-13
-3.76113e-12
-1.44145e-12
-7.59456e-12
-2.57378e-12
-8.57727e-12
-3.5198e-12
-7.44296e-12
-4.08245e-12
-4.4281e-12
-4.18182e-12
9.14648e-14
-3.68525e-12
5.34238e-12
-2.90348e-12
1.02067e-11
-1.78141e-12
1.32787e-11
-4.75914e-13
1.44811e-11
8.78588e-13
1.38266e-11
2.09588e-12
1.12165e-11
3.04878e-12
6.77249e-12
3.68419e-12
1.36209e-12
3.74885e-12
-3.74733e-12
3.24073e-12
-7.82002e-12
2.38649e-12
-1.02319e-11
1.37404e-12
-1.05829e-11
4.48429e-13
-8.54677e-12
-3.81025e-12
-5.40692e-13
-3.22046e-12
-1.67831e-12
-6.45698e-12
-2.94384e-12
-7.31178e-12
-4.04035e-12
-6.34648e-12
-4.77486e-12
-3.69361e-12
-4.9761e-12
2.92689e-13
-4.41769e-12
4.78395e-12
-3.27645e-12
9.06544e-12
-1.8804e-12
1.18827e-11
-3.33784e-13
1.29347e-11
1.31677e-12
1.21761e-11
2.86775e-12
9.66553e-12
4.02536e-12
5.61484e-12
4.54127e-12
8.46154e-13
4.4476e-12
-3.65369e-12
3.79523e-12
-7.1677e-12
2.75212e-12
-9.18883e-12
1.56268e-12
-9.39353e-12
5.07592e-13
-7.49174e-12
-3.3027e-12
-5.57406e-13
-2.66309e-12
-1.74242e-12
-5.27202e-12
-3.08695e-12
-5.96731e-12
-4.30798e-12
-5.12551e-12
-5.1435e-12
-2.85814e-12
-5.34244e-12
4.91579e-13
-4.85092e-12
4.29239e-12
-3.58324e-12
7.79771e-12
-1.93259e-12
1.0232e-11
-9.9291e-14
1.11013e-11
1.75243e-12
1.03243e-11
3.41515e-12
8.00276e-12
4.57387e-12
4.45606e-12
5.03937e-12
3.806e-13
4.82446e-12
-3.43885e-12
4.04406e-12
-6.38736e-12
2.89776e-12
-8.04259e-12
1.62555e-12
-8.12139e-12
5.21688e-13
-6.38795e-12
-2.78105e-12
-5.28163e-13
-2.13499e-12
-1.67963e-12
-4.12062e-12
-3.02261e-12
-4.6244e-12
-4.25933e-12
-3.88885e-12
-5.0963e-12
-2.02124e-12
-5.30095e-12
6.96152e-13
-4.76459e-12
3.75597e-12
-3.53466e-12
6.56771e-12
-1.80604e-12
8.5033e-12
1.34521e-13
9.16067e-12
2.05041e-12
8.40832e-12
3.68514e-12
6.36795e-12
4.76479e-12
3.37632e-12
5.14756e-12
-2.24977e-15
4.85419e-12
-3.14555e-12
4.02291e-12
-5.55617e-12
2.85334e-12
-6.87312e-12
1.58321e-12
-6.85135e-12
5.0185e-13
-5.30669e-12
-2.27925e-12
-4.64415e-13
-1.67065e-12
-1.51289e-12
-3.07223e-12
-2.76011e-12
-3.37727e-12
-3.9073e-12
-2.74175e-12
-4.67624e-12
-1.25239e-12
-4.8425e-12
8.62327e-13
-4.30958e-12
3.22296e-12
-3.12771e-12
5.38575e-12
-1.47634e-12
6.85185e-12
3.95766e-13
7.28847e-12
2.22021e-12
6.58379e-12
3.72573e-12
4.86233e-12
4.68197e-12
2.41999e-12
4.9766e-12
-2.96981e-13
4.63384e-12
-2.80289e-12
3.80568e-12
-4.72812e-12
2.67477e-12
-5.74232e-12
1.46793e-12
-5.64462e-12
4.58958e-13
-4.29783e-12
-1.82036e-12
-3.77279e-13
-1.29346e-12
-1.275e-12
-2.17461e-12
-2.36133e-12
-2.29103e-12
-3.34907e-12
-1.75412e-12
-4.00493e-12
-5.96629e-13
-4.09442e-12
9.51706e-13
-3.56257e-12
2.69101e-12
-2.47813e-12
4.30121e-12
-9.92349e-13
5.36596e-12
6.93659e-13
5.60235e-12
2.32761e-12
4.94973e-12
3.64711e-12
3.54272e-12
4.45552e-12
1.61147e-12
4.64878e-12
-4.9036e-13
4.2818e-12
-2.43603e-12
3.50071e-12
-3.94715e-12
2.44501e-12
-4.68674e-12
1.33861e-12
-4.53835e-12
4.11229e-13
-3.37057e-12
-1.40919e-12
-3.0628e-13
-9.87273e-13
-1.0204e-12
-1.4606e-12
-1.93219e-12
-1.37935e-12
-2.78134e-12
-9.05084e-13
-3.1977e-12
-1.80383e-13
-3.20414e-12
9.58039e-13
-2.67434e-12
2.16109e-12
-1.70246e-12
3.3292e-12
-4.44642e-13
4.10803e-12
9.99788e-13
4.1578e-12
2.4444e-12
3.505e-12
3.56318e-12
2.42382e-12
4.24319e-12
9.31331e-13
4.31166e-12
-5.58965e-13
3.90169e-12
-2.02618e-12
3.19528e-12
-3.24087e-12
2.23849e-12
-3.73008e-12
1.22625e-12
-3.52625e-12
3.7237e-13
-2.51683e-12
-1.03689e-12
-1.71277e-13
-8.16094e-13
-6.94719e-13
-9.37261e-13
-1.40489e-12
-6.69296e-13
-2.20657e-12
-1.03514e-13
-2.78547e-12
3.98403e-13
-2.60471e-12
7.7716e-13
-1.9405e-12
1.49676e-12
-1.02602e-12
2.4146e-12
2.31834e-14
3.0587e-12
1.28361e-12
2.89725e-12
2.61775e-12
2.17073e-12
3.61967e-12
1.42178e-12
4.02514e-12
5.25732e-13
3.93449e-12
-4.68444e-13
3.48097e-12
-1.57278e-12
2.91919e-12
-2.67922e-12
2.09313e-12
-2.90415e-12
1.19631e-12
-2.62957e-12
3.92481e-13
-1.71313e-12
-6.44474e-13
-3.62024e-13
-4.54164e-13
-6.4512e-13
-6.54266e-13
-1.13319e-12
-1.81336e-13
-1.85953e-12
6.22721e-13
-2.06231e-12
6.01081e-13
-1.66765e-12
3.82384e-13
-8.08364e-13
6.37366e-13
-1.44869e-13
1.75099e-12
3.08992e-13
2.60472e-12
1.15783e-12
2.04828e-12
2.57697e-12
7.51476e-13
3.73249e-12
2.66141e-13
4.30723e-12
-4.91309e-14
3.83749e-12
1.168e-15
3.04864e-12
-7.84048e-13
2.7011e-12
-2.3318e-12
1.88998e-12
-2.09316e-12
1.01761e-12
-1.75733e-12
3.83496e-13
-1.07914e-12
-2.61034e-13
-3.57769e-13
-9.6479e-14
-6.67591e-13
-3.44533e-13
-7.546e-13
-9.44165e-14
-2.05612e-12
1.92415e-12
-2.92198e-12
1.46685e-12
-2.83671e-12
2.97026e-13
-5.33024e-13
-1.66642e-12
2.67671e-13
9.50195e-13
-2.66009e-13
3.1383e-12
-6.14604e-15
1.78832e-12
2.50956e-12
-1.76433e-12
4.72518e-12
-1.94958e-12
4.48901e-12
1.86935e-13
3.26286e-12
1.22721e-12
2.21752e-12
2.61188e-13
3.17749e-12
-3.29189e-12
2.32014e-12
-1.23591e-12
1.16346e-12
-6.00751e-13
4.51045e-14
3.91152e-14
-2.15972e-13
-1.37006e-12
1.27352e-12
-5.96504e-13
-1.11815e-12
7.79402e-13
-1.47039e-12
-1.84844e-13
2.88832e-12
-3.27849e-12
4.56044e-12
-3.30435e-12
3.22808e-13
1.79315e-12
-6.764e-12
4.88718e-12
-2.14391e-12
-1.29774e-13
8.15516e-12
-3.50243e-12
5.16089e-12
3.96935e-12
-9.23621e-12
1.01533e-11
-8.13365e-12
7.70597e-12
2.63422e-12
1.36854e-12
7.56456e-12
1.40607e-12
2.23543e-13
3.75869e-12
-5.64458e-12
2.874e-12
-3.51316e-13
3.02173e-13
1.97101e-12
-3.93548e-13
7.34764e-13
-6.09546e-13
-6.85106e-13
1.95851e-12
-1.26414e-12
-5.38754e-13
7.47757e-12
-1.02117e-11
8.04213e-12
2.32439e-12
-3.93375e-12
1.65348e-11
-1.11252e-11
7.50859e-12
1.05115e-11
-2.83942e-11
2.44766e-11
-1.61079e-11
1.16979e-13
3.25118e-11
-1.97215e-11
2.4997e-11
6.02087e-12
-3.49673e-11
2.95438e-11
-3.16475e-11
1.25848e-11
1.95904e-11
-9.17265e-12
2.93163e-11
-1.23797e-12
-7.70443e-12
1.12058e-11
-1.8085e-11
5.72935e-12
5.10522e-12
-3.11527e-12
1.08127e-11
-4.37835e-12
1.99848e-12
-4.98782e-12
-1.25643e-12
1.75852e-12
-3.27467e-12
9.26696e-13
1.55473e-11
-1.55926e-11
2.82322e-11
-5.90542e-12
-3.69641e-12
2.71095e-11
-3.03959e-11
1.96453e-11
2.22973e-11
-4.40894e-11
7.26103e-11
-3.62152e-11
1.62161e-12
5.77247e-11
-5.64761e-11
4.66948e-11
1.71269e-11
-5.91806e-11
8.03405e-11
-5.16265e-11
2.28368e-11
4.34408e-11
-3.62343e-11
4.85837e-11
1.6502e-12
-2.53663e-11
3.07936e-11
-2.55745e-11
8.91404e-12
1.54951e-11
-5.28474e-12
1.38713e-11
-4.73407e-12
7.0473e-13
-5.21076e-12
-4.4569e-13
0
-1.35408e-12
2.65833e-15
1.44827e-12
-6.96937e-14
1.9362e-12
-1.8983e-13
-1.45002e-12
1.7707e-13
-5.811e-12
1.55828e-13
4.11309e-12
-4.04632e-13
1.20389e-11
-6.54672e-13
7.41449e-13
1.20084e-12
-7.1642e-12
6.93456e-13
2.95868e-12
-6.98135e-13
1.26727e-11
-5.32104e-13
2.63805e-12
8.58e-13
-4.21676e-12
7.15137e-13
1.61945e-12
-6.10146e-13
7.09105e-12
-3.84757e-13
3.93713e-12
8.85675e-14
3.49779e-13
6.83952e-14
-1.58146e-13
0
-3.57644e-13
7.05093e-16
0
5.05507e-15
-9.06465e-16
-4.74783e-16
-3.22328e-16
-8.53485e-14
0
4.49752e-15
0
1.41795e-13
0
2.3659e-16
-1.05991e-14
-4.1875e-13
-5.74229e-15
2.04526e-13
0
5.11297e-13
0
2.31696e-15
-6.00838e-15
-3.82842e-13
-6.43923e-15
7.27582e-14
0
4.29596e-13
0
3.62628e-15
-3.80646e-15
-5.51786e-14
-2.13747e-15
3.56474e-14
0
4.70898e-14
0
5.16739e-16
0
-5.23784e-16
1.74427e-18
0
-5.5953e-19
-7.68214e-19
-5.15343e-18
-1.09874e-17
-6.46692e-16
0
1.278e-15
0
1.96787e-16
0
0
-1.23863e-17
-6.22988e-15
-2.02217e-17
5.69059e-15
7.09003e-17
4.93446e-15
0
2.23838e-17
-4.30737e-17
-3.49852e-15
-1.16791e-16
2.02773e-16
0
7.39101e-15
0
3.51805e-17
-2.34756e-17
-3.13226e-16
0
-2.16955e-16
0
1.61816e-16
0
5.7617e-17
0
0
1.75708e-20
0
-2.13609e-20
-3.71771e-21
-4.96633e-19
-2.39082e-19
6.7394e-19
-1.51313e-21
3.37226e-18
-1.55427e-24
1.23248e-17
-5.92404e-26
-1.49339e-20
-2.4933e-20
-2.05662e-17
-4.87649e-19
2.65515e-17
0
7.48284e-17
3.03851e-18
4.57756e-19
-1.05401e-19
-7.44666e-18
-8.78222e-18
1.94761e-17
0
7.85059e-18
0
1.96694e-17
0
4.80713e-20
0
-5.21574e-18
0
-7.38508e-19
0
1.06882e-18
0
0
3.21513e-21
-4.72145e-22
7.14894e-22
-3.7776e-25
1.51296e-21
-4.13142e-22
1.56208e-24
-3.51675e-25
1.61533e-26
-7.95846e-27
1.74063e-26
-1.41452e-26
1.72442e-23
-1.06781e-23
-4.2572e-20
-5.44194e-24
5.65954e-20
-9.36137e-21
1.70147e-19
-4.21718e-21
1.95363e-20
-2.35872e-20
-1.76983e-19
-9.26226e-20
3.9859e-19
0
6.12005e-20
0
5.37149e-20
0
-9.39858e-20
0
-4.954e-20
0
-6.98906e-21
0
4.03299e-22
0
0
3.81982e-25
-1.89733e-27
1.57885e-27
-3.09079e-27
3.47589e-25
-1.70535e-26
6.32544e-27
-1.00279e-26
8.80341e-27
-1.09753e-26
9.60303e-27
-1.4562e-26
1.15335e-24
-3.68122e-24
4.34499e-25
-4.54791e-22
1.9393e-22
-1.01704e-22
1.24175e-20
-5.78135e-22
9.3457e-21
-7.67609e-22
2.46064e-22
-3.5195e-22
4.48065e-22
0
-3.32598e-23
0
-2.44797e-22
0
-9.66832e-22
1.25429e-22
-3.25141e-22
0
-1.67428e-22
0
-3.59216e-24
7.85943e-24
0
2.95884e-28
-1.06247e-27
1.40654e-27
-9.88558e-27
3.29305e-27
-1.06361e-25
5.82907e-27
-2.4905e-25
6.4252e-27
-1.485e-26
7.62114e-27
-7.29735e-26
8.63982e-25
-1.64213e-24
7.46966e-23
-7.50298e-24
4.62231e-23
-7.57463e-24
1.36473e-22
-4.58097e-24
9.82353e-23
-5.52299e-24
-2.53135e-23
7.52716e-24
-4.4991e-24
3.98939e-23
-8.81239e-24
1.09164e-23
-7.65893e-24
9.45937e-24
-1.03667e-23
1.05211e-23
-1.22325e-23
1.39263e-23
-5.67433e-24
5.83652e-24
-2.76013e-26
7.76201e-25
1.0749e-25
2.02518e-28
-1.60284e-28
3.75716e-27
-2.70768e-27
2.95501e-26
-2.82943e-27
8.09867e-26
-6.68991e-28
5.06964e-27
-6.84714e-29
3.7921e-26
-1.07451e-28
3.65779e-25
-8.57196e-27
1.28177e-24
-1.46492e-25
8.73683e-25
-6.3063e-25
6.4079e-25
-8.95942e-25
3.06583e-25
-5.30225e-25
-3.51387e-24
1.15571e-24
-3.05034e-24
4.13997e-24
-2.20865e-24
4.99903e-24
-2.02387e-24
2.51558e-24
-2.5219e-24
3.14952e-24
-8.5101e-25
4.00387e-24
-2.9085e-26
3.51737e-25
-1.45941e-26
3.62814e-26
6.13102e-26
8.2215e-30
-3.06339e-29
1.68043e-28
-4.66293e-29
1.46549e-28
-1.36189e-29
4.36029e-29
-6.72623e-30
6.17385e-30
-1.36224e-30
1.18113e-29
-1.62618e-30
1.09016e-27
-1.39792e-29
1.40612e-26
-1.69204e-27
5.65764e-26
-3.47796e-26
6.04442e-26
-1.44459e-25
-2.14577e-25
-1.83635e-26
-7.51043e-25
4.95995e-25
-7.34338e-25
8.55982e-25
-2.06149e-25
6.13993e-25
-1.81125e-25
1.22486e-25
-2.02848e-25
1.25067e-25
-5.72907e-26
1.34317e-25
-7.02928e-27
2.53871e-26
-6.40762e-28
8.05511e-27
4.52743e-27
3.36472e-31
3.35484e-31
9.49405e-32
5.39677e-32
2.55697e-32
3.26323e-32
3.82256e-31
3.69809e-29
3.92e-28
-7.0568e-27
-5.59309e-26
-8.24437e-26
-3.83473e-26
-5.63726e-27
-4.77375e-27
-3.83517e-27
-1.32273e-27
-3.09773e-28
-1.13358e-28
)
;

boundaryField
{
    top
    {
        type            calculated;
        value           nonuniform List<scalar> 
20
(
0
0
0
0
0
0
0
0
0
0
6.91788e-27
2.71165e-25
3.24648e-25
1.30013e-25
2.90433e-26
2.75906e-26
2.25334e-26
6.73359e-27
2.14762e-27
6.73614e-28
)
;
    }
    left
    {
        type            calculated;
        value           uniform 0;
    }
    right
    {
        type            calculated;
        value           uniform 0;
    }
    bottom
    {
        type            calculated;
        value           nonuniform List<scalar> 
20
(
0
0
0
0
0
-7.88848e-31
0
0
0
0
0
0
0
0
0
0
0
0
0
0
)
;
    }
    front
    {
        type            empty;
        value           nonuniform List<scalar> 0();
    }
    back
    {
        type            empty;
        value           nonuniform List<scalar> 0();
    }
    frontAndBack
    {
        type            empty;
        value           nonuniform List<scalar> 0();
    }
}


// ************************************************************************* //
