/*--------------------------------*- C++ -*----------------------------------*\
  =========                 |
  \\      /  F ield         | OpenFOAM: The Open Source CFD Toolbox
   \\    /   O peration     | Website:  https://openfoam.org
    \\  /    A nd           | Version:  10
     \\/     M anipulation  |
\*---------------------------------------------------------------------------*/
FoamFile
{
    format      ascii;
    class       volScalarField;
    location    "0.09";
    object      p;
}
// * * * * * * * * * * * * * * * * * * * * * * * * * * * * * * * * * * * * * //

dimensions      [1 -1 -2 0 0 0 0];

internalField   nonuniform List<scalar> 
800
(
14.084
14.0833
14.0837
14.0825
14.0787
14.076
14.0743
14.0719
14.0697
14.0694
14.0702
14.0718
14.0736
14.0769
14.0819
14.0858
14.0874
14.0899
14.0872
14.0917
13.5913
13.5912
13.592
13.591
13.5891
13.5861
13.5857
13.5823
13.5821
13.5813
13.5829
13.5829
13.586
13.5894
13.5918
13.5959
13.5958
13.5976
13.5965
13.6005
13.1004
13.103
13.1025
13.1016
13.0999
13.0981
13.0971
13.0949
13.0937
13.093
13.0935
13.0948
13.0973
13.1004
13.1037
13.1038
13.1061
13.1074
13.1073
13.1106
12.6149
12.6148
12.6138
12.6133
12.6116
12.6095
12.6084
12.6069
12.6059
12.6056
12.606
12.6071
12.6087
12.6141
12.6141
12.6162
12.6181
12.6189
12.6185
12.6219
12.1256
12.1292
12.1287
12.1257
12.1246
12.1225
12.1232
12.1198
12.1187
12.1187
12.1191
12.1203
12.1222
12.1314
12.1271
12.1298
12.1318
12.1325
12.1328
12.1353
11.6423
11.6448
11.6465
11.641
11.6395
11.6377
11.6365
11.6395
11.6326
11.6328
11.6334
11.6343
11.637
11.6469
11.6421
11.6455
11.6477
11.6488
11.6476
11.6502
11.1592
11.1581
11.1593
11.1584
11.1565
11.1546
11.1534
11.1594
11.1479
11.1489
11.1494
11.1506
11.1589
11.1604
11.1614
11.1638
11.166
11.1674
11.1648
11.1668
10.6767
10.6794
10.6792
10.6777
10.6752
10.6715
10.6755
10.6751
10.6677
10.6673
10.6677
10.6681
10.6764
10.6773
10.6815
10.6841
10.6862
10.6882
10.6853
10.6858
10.201
10.2016
10.201
10.1993
10.196
10.1985
10.1934
10.1917
10.1889
10.188
10.1887
10.191
10.1941
10.1984
10.1985
10.2047
10.2052
10.206
10.2067
10.2073
9.72172
9.72279
9.72263
9.72321
9.72335
9.72121
9.71506
9.71444
9.71128
9.71033
9.71065
9.71366
9.71537
9.71986
9.72611
9.72844
9.73165
9.73257
9.73526
9.72997
9.24624
9.2484
9.24999
9.24914
9.24778
9.24273
9.24266
9.24002
9.236
9.23624
9.2364
9.23731
9.24212
9.24651
9.24981
9.25472
9.25662
9.26039
9.26067
9.25877
8.77491
8.77506
8.77379
8.77687
8.77272
8.76855
8.77107
8.76657
8.76331
8.76267
8.76326
8.76545
8.769
8.77426
8.77454
8.77833
8.783
8.78797
8.788
8.78737
8.30252
8.30205
8.30108
8.29979
8.30127
8.29617
8.29543
8.29575
8.29044
8.29092
8.29168
8.29312
8.29788
8.30009
8.30566
8.31068
8.31094
8.31486
8.31416
8.31395
7.83271
7.83066
7.83237
7.83058
7.83139
7.82727
7.82778
7.8248
7.8201
7.82158
7.82209
7.82596
7.82677
7.83331
7.83381
7.83622
7.83929
7.84206
7.842
7.84316
7.36085
7.3603
7.35971
7.35807
7.35797
7.35803
7.36051
7.35433
7.35484
7.3543
7.35358
7.35849
7.3565
7.36453
7.3656
7.36483
7.36786
7.37073
7.37243
7.37331
6.88997
6.88823
6.88879
6.88686
6.88569
6.89041
6.89065
6.88424
6.88683
6.88631
6.88841
6.88976
6.88973
6.89338
6.89593
6.89393
6.89804
6.90003
6.9028
6.90452
6.41949
6.41752
6.41702
6.41561
6.41389
6.42104
6.41847
6.41597
6.41763
6.41859
6.41913
6.41944
6.41775
6.42001
6.42037
6.42232
6.42589
6.42919
6.43198
6.43497
5.94731
5.94435
5.94325
5.94175
5.94098
5.94707
5.94377
5.94421
5.94362
5.94747
5.94498
5.94327
5.94353
5.94598
5.9462
5.94866
5.95277
5.95723
5.96149
5.96526
5.4731
5.46997
5.4681
5.46589
5.46532
5.46652
5.46772
5.46683
5.46505
5.46381
5.46359
5.46418
5.46449
5.46563
5.46793
5.47216
5.47819
5.48469
5.49081
5.49575
4.99788
4.99444
4.99143
4.98843
4.98654
4.98545
4.9846
4.98486
4.98322
4.98133
4.97977
4.97911
4.97934
4.9814
4.98572
4.99294
5.00212
5.01179
5.0206
5.02712
4.52168
4.51786
4.51376
4.50956
4.50583
4.50286
4.50046
4.49824
4.49555
4.49212
4.48898
4.4873
4.48788
4.49168
4.49936
4.51075
4.52477
4.53936
4.55219
4.5609
4.04525
4.04098
4.03565
4.0296
4.02342
4.01774
4.01288
4.00829
4.00297
3.99676
3.99111
3.98822
3.9897
3.99632
4.00811
4.02518
4.04631
4.06849
4.08769
4.09965
3.56964
3.56499
3.55823
3.54967
3.54
3.53053
3.52266
3.51556
3.50717
3.49652
3.48639
3.4814
3.48409
3.49425
3.51136
3.53557
3.56674
3.60072
3.62985
3.64731
3.09641
3.09118
3.08322
3.07222
3.05909
3.04238
3.03038
3.02177
3.01075
2.99289
2.97439
2.96536
2.9703
2.98481
3.00686
3.03831
3.08373
3.13645
3.18251
3.20985
2.61836
2.61022
2.59956
2.58212
2.55923
2.5375
2.52957
2.52785
2.51922
2.48836
2.45099
2.4327
2.44404
2.46597
2.4937
2.528
2.59418
2.6789
2.75246
2.79601
2.17967
2.16673
2.16069
2.16152
2.12527
2.06546
2.03798
2.05288
2.06362
1.99717
1.91596
1.87839
1.92863
1.9887
1.9866
1.99131
2.09425
2.24155
2.35886
2.42791
1.68555
1.62128
1.58772
1.63862
1.64919
1.48354
1.35375
1.48826
1.65895
1.49302
1.16716
1.0948
1.37128
1.50415
1.38365
1.32027
1.53275
1.81901
1.98645
2.02162
1.44105
1.20229
1.07142
1.2819
1.65127
1.1629
0.497772
0.970112
2.07871
1.64607
0.191642
0.0357452
1.3033
1.63425
0.796777
0.398049
1.05386
1.71496
1.77476
1.67463
1.11558
0.318396
-0.410697
0.387385
2.33137
0.936464
-2.33415
-1.01533
3.96942
2.87151
-2.99243
-3.15529
2.18139
2.86908
-0.918357
-1.9199
0.580292
2.06052
1.56127
1.04455
1.83103
0.488106
-2.40154
-0.604054
5.80053
3.04563
-7.78138
-5.11216
10.8385
8.39806
-9.98369
-9.70238
7.08967
8.11463
-4.35152
-6.36587
1.40513
3.97038
1.82996
0.794297
0.18983
0.040941
-0.336628
-0.143476
0.822942
0.539449
-0.9802
-0.719465
1.57167
1.25689
-1.29965
-1.21267
1.18634
1.32137
-0.569958
-0.76483
0.279467
0.471142
0.166434
0.0311443
-0.00303535
0.00117144
0.0170548
0.0208297
-0.00815454
-0.0107124
0.0342501
0.0362541
-0.0318813
-0.0270388
0.0533002
0.0486895
-0.0173583
-0.0112828
0.0422431
0.0373241
0.00218236
-0.00575937
0.00159567
0.0026443
0.00177753
0.00499063
0.00842138
0.00664584
0.00193243
0.00114294
0.0128164
0.0153489
-0.00960712
-0.00725781
0.0188829
0.017808
-0.00422133
-0.001903
0.0129453
0.0273749
0.00940602
-0.00340062
-0.000179728
0.00117065
0.00375928
0.00503015
0.00628866
0.00417243
-0.000683368
0.00267713
0.00850473
0.00759971
-0.00168956
-0.000518278
0.0104268
0.0102689
0.00122097
-0.000646639
0.007033
0.0116311
0.000954167
-0.0012409
0.000701672
0.00131851
0.00351148
0.00397694
0.00474294
0.00374023
0.00129447
0.0025325
0.00607417
0.00545851
0.000938913
0.00153562
0.00718899
0.00698485
0.00227214
0.00155404
0.00553612
0.00628732
0.00201179
0.000498236
0.0011233
0.00113834
0.00305165
0.00327321
0.00344441
0.0029839
0.00223977
0.00275931
0.00378027
0.00354537
0.00237313
0.00263618
0.00428232
0.00429227
0.002988
0.00255656
0.00359982
0.00374168
0.00208573
0.00117194
0.00106095
0.000898677
0.00244492
0.00257851
0.00264164
0.00237154
0.00203301
0.00231729
0.00281571
0.00266042
0.00207068
0.00224803
0.00306493
0.0030765
0.00239193
0.00211627
0.00254875
0.00254307
0.00168535
0.00108339
0.00089843
0.000788164
0.00178937
0.00186556
0.0018801
0.00173583
0.00159105
0.00172984
0.00194767
0.00185946
0.00159345
0.00168715
0.00205312
0.00206346
0.00172136
0.00154896
0.00168539
0.00163052
0.00120509
0.000839568
0.000672254
0.00059687
0.00109422
0.00113451
0.00113587
0.00106854
0.00101118
0.00106665
0.00114626
0.00110495
0.00100465
0.00104851
0.00118614
0.00119043
0.00104411
0.000945529
0.000955289
0.000896719
0.000696032
0.000503369
0.00039259
0.000342603
0.000368581
0.000381773
0.000381433
0.00036115
0.000344291
0.000357913
0.000378235
0.00036743
0.000345128
0.000369515
0.000410997
0.000412568
0.000369141
0.000329209
0.000310175
0.000273841
0.000205232
0.000140162
9.98285e-05
8.02242e-05
)
;

boundaryField
{
    top
    {
        type            calculated;
        value           nonuniform List<scalar> 
20
(
-1.43829e-07
-1.21836e-06
-2.68809e-06
-4.1187e-06
-5.09979e-06
-5.31164e-06
-4.67419e-06
-3.28097e-06
-1.65865e-06
-4.47294e-07
-2.56386e-10
0
0
0
0
0
0
0
0
0
)
;
    }
    left
    {
        type            calculated;
        value           nonuniform List<scalar> 
40
(
14.084
13.5913
13.1004
12.6149
12.1256
11.6423
11.1592
10.6767
10.201
9.72172
9.24624
8.77491
8.30252
7.83271
7.36085
6.88997
6.41949
5.94731
5.4731
4.99788
4.52168
4.04525
3.56964
3.09641
2.61836
2.17967
1.68555
1.44105
1.11558
1.83103
0.18983
-0.00303535
0.00177753
0.00375928
0.00351148
0.00305165
0.00244492
0.00178937
0.00109422
0.000368581
)
;
    }
    right
    {
        type            calculated;
        value           nonuniform List<scalar> 
40
(
14.0917
13.6005
13.1106
12.6219
12.1353
11.6502
11.1668
10.6858
10.2073
9.72997
9.25877
8.78737
8.31395
7.84316
7.37331
6.90452
6.43497
5.96526
5.49575
5.02712
4.5609
4.09965
3.64731
3.20985
2.79601
2.42791
2.02162
1.67463
1.04455
0.794297
0.0311443
0.0026443
0.00117065
0.00131851
0.00113834
0.000898677
0.000788164
0.00059687
0.000342603
8.02242e-05
)
;
    }
    bottom
    {
        type            calculated;
        value           nonuniform List<scalar> 
20
(
14.3291
14.3284
14.3288
14.3275
14.3236
14.3208
14.319
14.3166
14.3143
14.3139
14.3147
14.3164
14.3182
14.3216
14.3268
14.3307
14.3324
14.3349
14.3323
14.3369
)
;
    }
    front
    {
        type            empty;
    }
    back
    {
        type            empty;
    }
    frontAndBack
    {
        type            empty;
    }
}


// ************************************************************************* //
