/*--------------------------------*- C++ -*----------------------------------*\
  =========                 |
  \\      /  F ield         | OpenFOAM: The Open Source CFD Toolbox
   \\    /   O peration     | Website:  https://openfoam.org
    \\  /    A nd           | Version:  10
     \\/     M anipulation  |
\*---------------------------------------------------------------------------*/
FoamFile
{
    format      ascii;
    class       volScalarField;
    location    "0.09";
    object      p_rgh;
}
// * * * * * * * * * * * * * * * * * * * * * * * * * * * * * * * * * * * * * //

dimensions      [1 -1 -2 0 0 0 0];

internalField   nonuniform List<scalar> 
800
(
14.3292
14.3285
14.329
14.3277
14.324
14.3212
14.3195
14.3172
14.315
14.3146
14.3154
14.317
14.3188
14.3221
14.3272
14.331
14.3326
14.3351
14.3324
14.337
14.327
14.3269
14.3278
14.3267
14.3248
14.3218
14.3214
14.318
14.3178
14.317
14.3186
14.3186
14.3217
14.3252
14.3275
14.3317
14.3315
14.3333
14.3322
14.3362
14.3266
14.3293
14.3288
14.3278
14.3261
14.3244
14.3233
14.3211
14.32
14.3192
14.3197
14.321
14.3235
14.3267
14.33
14.33
14.3324
14.3336
14.3335
14.3368
14.3316
14.3316
14.3306
14.33
14.3283
14.3263
14.3252
14.3237
14.3226
14.3223
14.3227
14.3238
14.3254
14.3309
14.3308
14.3329
14.3348
14.3356
14.3353
14.3386
14.3328
14.3364
14.3359
14.3329
14.3318
14.3297
14.3304
14.327
14.326
14.326
14.3263
14.3275
14.3294
14.3387
14.3343
14.337
14.339
14.3397
14.34
14.3425
14.34
14.3426
14.3442
14.3387
14.3372
14.3354
14.3342
14.3373
14.3303
14.3305
14.3311
14.332
14.3347
14.3446
14.3398
14.3432
14.3454
14.3465
14.3453
14.3479
14.3474
14.3463
14.3475
14.3466
14.3447
14.3428
14.3416
14.3476
14.3361
14.3371
14.3375
14.3388
14.3471
14.3486
14.3496
14.352
14.3542
14.3556
14.353
14.355
14.3554
14.3581
14.3579
14.3564
14.3538
14.3502
14.3543
14.3538
14.3464
14.346
14.3464
14.3467
14.3551
14.356
14.3602
14.3628
14.3649
14.3669
14.364
14.3646
14.3702
14.3707
14.3702
14.3684
14.3652
14.3677
14.3626
14.3608
14.3581
14.3571
14.3579
14.3602
14.3633
14.3676
14.3677
14.3739
14.3744
14.3753
14.3759
14.3765
14.3814
14.3825
14.3823
14.3829
14.3831
14.3809
14.3747
14.3741
14.3709
14.37
14.3703
14.3733
14.375
14.3796
14.3858
14.3882
14.3914
14.3923
14.395
14.3897
14.3964
14.3986
14.4002
14.3993
14.398
14.3929
14.3928
14.3902
14.3862
14.3864
14.3866
14.3875
14.3923
14.3967
14.4
14.4049
14.4068
14.4106
14.4108
14.409
14.4156
14.4158
14.4145
14.4175
14.4134
14.4092
14.4117
14.4072
14.404
14.4033
14.4039
14.4061
14.4097
14.4149
14.4152
14.419
14.4237
14.4287
14.4287
14.4281
14.4337
14.4333
14.4323
14.431
14.4324
14.4274
14.4266
14.4269
14.4216
14.4221
14.4229
14.4243
14.429
14.4313
14.4368
14.4418
14.4421
14.446
14.4453
14.4452
14.4544
14.4524
14.4541
14.4523
14.453
14.449
14.4495
14.4464
14.4418
14.4433
14.4438
14.4476
14.4484
14.455
14.4555
14.4579
14.461
14.4638
14.4637
14.4649
14.473
14.4725
14.4719
14.4703
14.4701
14.4702
14.4727
14.4665
14.467
14.4665
14.4657
14.4706
14.4687
14.4767
14.4778
14.477
14.4801
14.483
14.4847
14.4855
14.4927
14.4909
14.4915
14.4896
14.4884
14.4931
14.4934
14.4869
14.4895
14.4889
14.491
14.4924
14.4924
14.4961
14.4986
14.4966
14.5008
14.5028
14.5055
14.5073
14.5127
14.5108
14.5103
14.5088
14.5071
14.5142
14.5117
14.5092
14.5108
14.5117
14.5122
14.5126
14.5109
14.5132
14.5136
14.5155
14.5191
14.5224
14.5252
14.5282
14.531
14.5281
14.527
14.5255
14.5247
14.5307
14.5275
14.5279
14.5273
14.5311
14.5286
14.527
14.5272
14.5297
14.5299
14.5324
14.5365
14.541
14.5452
14.549
14.5473
14.5442
14.5423
14.5401
14.5395
14.5407
14.5419
14.5411
14.5393
14.538
14.5378
14.5384
14.5387
14.5398
14.5422
14.5464
14.5524
14.5589
14.5651
14.57
14.5626
14.5592
14.5562
14.5532
14.5513
14.5502
14.5493
14.5496
14.548
14.5461
14.5445
14.5438
14.5441
14.5461
14.5505
14.5577
14.5669
14.5765
14.5854
14.5919
14.5769
14.5731
14.569
14.5648
14.5611
14.5581
14.5557
14.5535
14.5508
14.5474
14.5442
14.5425
14.5431
14.5469
14.5546
14.566
14.58
14.5946
14.6074
14.6162
14.591
14.5867
14.5814
14.5754
14.5692
14.5635
14.5586
14.554
14.5487
14.5425
14.5369
14.534
14.5355
14.5421
14.5539
14.5709
14.5921
14.6143
14.6334
14.6454
14.6059
14.6013
14.5945
14.5859
14.5763
14.5668
14.5589
14.5518
14.5434
14.5328
14.5226
14.5177
14.5204
14.5305
14.5476
14.5718
14.603
14.637
14.6661
14.6836
14.6232
14.6179
14.61
14.599
14.5859
14.5691
14.5572
14.5485
14.5375
14.5197
14.5012
14.4921
14.4971
14.5116
14.5336
14.5651
14.6105
14.6632
14.7093
14.7366
14.6356
14.6275
14.6168
14.5994
14.5765
14.5548
14.5468
14.5451
14.5365
14.5056
14.4683
14.45
14.4613
14.4832
14.511
14.5453
14.6114
14.6962
14.7697
14.8133
14.6874
14.6745
14.6684
14.6693
14.633
14.5732
14.5457
14.5606
14.5714
14.5049
14.4237
14.3861
14.4364
14.4965
14.4944
14.4991
14.602
14.7493
14.8666
14.9357
14.6838
14.6195
14.586
14.6369
14.6474
14.4818
14.352
14.4865
14.6572
14.4913
14.1654
14.0931
14.3695
14.5024
14.3819
14.3185
14.531
14.8173
14.9847
15.0199
14.9298
14.691
14.5602
14.7706
15.14
14.6516
13.9865
14.4589
15.5675
15.1348
13.6804
13.5245
14.792
15.123
14.2854
13.8868
14.5425
15.2037
15.2635
15.1634
15.0948
14.2976
13.5685
14.3666
16.3106
14.9157
11.6451
12.9639
17.9487
16.8508
10.9868
10.8239
16.1606
16.8483
13.0609
12.0593
14.5595
16.0398
15.5405
15.0238
14.5001
13.1555
10.2235
12.0322
18.4623
15.682
4.7584
7.44087
23.5204
21.0474
2.50679
2.77321
19.6993
20.7187
8.1639
6.15094
14.0076
16.6149
14.4722
13.4417
2.12736
1.96076
1.57056
1.75043
2.8248
2.4945
0.873748
1.12141
3.62093
3.27284
0.490512
0.600785
3.20381
3.37196
1.32399
1.14946
2.28258
2.50738
2.19445
2.06418
0.0124368
0.0166277
0.032531
0.0363004
0.00802641
0.00484
0.0500057
0.0517351
-0.0140361
-0.01009
0.0687812
0.0641868
-0.000283908
0.00604413
0.0579576
0.0528228
0.0181877
0.0101343
0.0178515
0.0181964
0.017729
0.020934
0.0243877
0.0226064
0.0182736
0.0171001
0.029039
0.0312993
0.00650447
0.00872467
0.0348246
0.0337712
0.0118052
0.0145444
0.0291474
0.0433557
0.0258892
0.0126858
0.0159183
0.0172145
0.0201912
0.0214619
0.0227215
0.0206065
0.0157501
0.0191172
0.0249365
0.0240315
0.0147423
0.0159321
0.026859
0.0267128
0.0176578
0.0157852
0.023495
0.0280635
0.0173985
0.0151931
0.017136
0.0177525
0.0204338
0.0208992
0.0216652
0.0206625
0.0182167
0.0194547
0.0229964
0.0223809
0.0178612
0.0184579
0.0241113
0.0239075
0.0191953
0.0184764
0.0224589
0.0232096
0.0189344
0.0174205
0.0180456
0.0180606
0.0204644
0.020686
0.0208572
0.0203966
0.0196525
0.0201721
0.021193
0.0209581
0.0197859
0.0200489
0.0216951
0.021705
0.0204008
0.0199693
0.0210126
0.0211544
0.0194985
0.0185847
0.0184737
0.0183114
0.0203482
0.0204818
0.0205449
0.0202748
0.0199363
0.0202205
0.020719
0.0205637
0.0199739
0.0201513
0.0209682
0.0209798
0.0202952
0.0200195
0.020452
0.0204463
0.0195886
0.0189866
0.0188017
0.0186914
0.0201831
0.0202593
0.0202739
0.0201296
0.0199848
0.0201236
0.0203414
0.0202532
0.0199872
0.0200809
0.0204469
0.0204572
0.0201151
0.0199427
0.0200791
0.0200243
0.0195988
0.0192333
0.019066
0.0189906
0.0199785
0.0200188
0.0200201
0.0199528
0.0198954
0.0199509
0.0200305
0.0199892
0.0198889
0.0199328
0.0200704
0.0200747
0.0199284
0.0198298
0.0198395
0.019781
0.0195803
0.0193876
0.0192768
0.0192269
0.0197433
0.0197565
0.0197562
0.0197359
0.019719
0.0197327
0.019753
0.0197422
0.0197199
0.0197443
0.0197857
0.0197873
0.0197439
0.019704
0.0196849
0.0196486
0.01958
0.0195149
0.0194746
0.019455
)
;

boundaryField
{
    top
    {
        type            prghTotalPressure;
        rho             rho;
        psi             none;
        gamma           1;
        p0              uniform 0;
        value           nonuniform List<scalar> 
20
(
0.0196199
0.0196188
0.0196173
0.0196159
0.0196149
0.0196147
0.0196153
0.0196167
0.0196183
0.0196196
0.01962
0.01962
0.01962
0.01962
0.01962
0.01962
0.01962
0.01962
0.01962
0.01962
)
;
        rho             rho;
    }
    left
    {
        type            fixedFluxPressure;
        gradient        uniform 0;
        value           nonuniform List<scalar> 
40
(
14.3292
14.327
14.3266
14.3316
14.3328
14.34
14.3474
14.3554
14.3702
14.3814
14.3964
14.4156
14.4337
14.4544
14.473
14.4927
14.5127
14.531
14.5473
14.5626
14.5769
14.591
14.6059
14.6232
14.6356
14.6874
14.6838
14.9298
15.0948
14.5001
2.12736
0.0124368
0.017729
0.0201912
0.0204338
0.0204644
0.0203482
0.0201831
0.0199785
0.0197433
)
;
    }
    right
    {
        type            fixedFluxPressure;
        gradient        uniform 0;
        value           nonuniform List<scalar> 
40
(
14.337
14.3362
14.3368
14.3386
14.3425
14.3479
14.355
14.3646
14.3765
14.3897
14.409
14.4281
14.4452
14.4649
14.4855
14.5073
14.5282
14.549
14.57
14.5919
14.6162
14.6454
14.6836
14.7366
14.8133
14.9357
15.0199
15.1634
15.0238
13.4417
2.06418
0.0181964
0.0172145
0.0177525
0.0180606
0.0183114
0.0186914
0.0189906
0.0192269
0.019455
)
;
    }
    bottom
    {
        type            fixedFluxPressure;
        gradient        nonuniform List<scalar> 
20
(
-3.84309
-4.86204
-6.81215
-9.55654
-12.9232
-16.6911
-20.5584
-24.1372
-26.9326
-28.4727
-28.4472
-26.8655
-24.0521
-20.4909
-16.6591
-12.9264
-9.57912
-6.83726
-4.88508
-3.86025
)
;
        value           nonuniform List<scalar> 
20
(
14.3291
14.3284
14.3288
14.3275
14.3236
14.3208
14.319
14.3166
14.3143
14.3139
14.3147
14.3164
14.3182
14.3216
14.3268
14.3307
14.3324
14.3349
14.3323
14.3369
)
;
    }
    front
    {
        type            empty;
    }
    back
    {
        type            empty;
    }
    frontAndBack
    {
        type            empty;
    }
}


// ************************************************************************* //
