/*--------------------------------*- C++ -*----------------------------------*\
  =========                 |
  \\      /  F ield         | OpenFOAM: The Open Source CFD Toolbox
   \\    /   O peration     | Website:  https://openfoam.org
    \\  /    A nd           | Version:  10
     \\/     M anipulation  |
\*---------------------------------------------------------------------------*/
FoamFile
{
    format      ascii;
    class       surfaceScalarField;
    location    "0.09";
    object      phi;
}
// * * * * * * * * * * * * * * * * * * * * * * * * * * * * * * * * * * * * * //

dimensions      [0 3 -1 0 0 0 0];

internalField   nonuniform List<scalar> 
1540
(
6.08605e-14
-6.09119e-14
2.16364e-13
-1.55562e-13
4.7967e-13
-2.63367e-13
7.32998e-13
-2.5339e-13
8.63861e-13
-1.30924e-13
8.80146e-13
-1.63473e-14
7.42032e-13
1.38052e-13
5.16345e-13
2.25626e-13
1.92386e-13
3.23896e-13
-1.54804e-13
3.47128e-13
-4.75482e-13
3.20616e-13
-7.62952e-13
2.87407e-13
-9.83382e-13
2.20368e-13
-1.10544e-12
1.21993e-13
-1.00424e-12
-1.01255e-13
-7.71702e-13
-2.32603e-13
-4.57789e-13
-3.13975e-13
-2.38991e-13
-2.18864e-13
-3.69367e-14
-2.02123e-13
-3.69713e-14
2.28763e-13
-2.89734e-13
6.90696e-13
-6.17562e-13
1.23724e-12
-8.09975e-13
1.70526e-12
-7.21479e-13
2.00204e-12
-4.27782e-13
2.02618e-12
-4.05522e-14
1.67035e-12
4.93814e-13
1.12747e-12
7.68439e-13
3.87198e-13
1.0641e-12
-3.78915e-13
1.11317e-12
-1.12631e-12
1.06794e-12
-1.78901e-12
9.50037e-13
-2.28253e-12
7.13817e-13
-2.45339e-12
2.9279e-13
-2.29717e-12
-2.57551e-13
-1.89542e-12
-6.34419e-13
-1.34936e-12
-8.60107e-13
-7.01599e-13
-8.66693e-13
-2.01501e-13
-7.02293e-13
-2.38508e-13
3.45366e-13
-6.35163e-13
1.05322e-12
-1.32549e-12
1.74565e-12
-1.50248e-12
2.34755e-12
-1.32344e-12
2.67331e-12
-7.53615e-13
2.63042e-12
2.27196e-15
2.3005e-12
8.23655e-13
1.54445e-12
1.52442e-12
6.00967e-13
2.00751e-12
-4.85136e-13
2.1992e-12
-1.56188e-12
2.14461e-12
-2.46927e-12
1.85736e-12
-3.09897e-12
1.34345e-12
-3.31154e-12
5.05284e-13
-3.21262e-12
-3.56542e-13
-2.68516e-12
-1.16195e-12
-1.89748e-12
-1.64786e-12
-1.031e-12
-1.73324e-12
-3.14999e-13
-1.41837e-12
-5.53543e-13
4.62268e-13
-1.09749e-12
1.25762e-12
-2.12091e-12
2.07344e-12
-2.31837e-12
2.77078e-12
-2.02086e-12
3.16392e-12
-1.14683e-12
3.12726e-12
3.88589e-14
2.6463e-12
1.30455e-12
1.78932e-12
2.38132e-12
6.64156e-13
3.1326e-12
-5.92185e-13
3.45547e-12
-1.82558e-12
3.37793e-12
-2.86741e-12
2.89911e-12
-3.54426e-12
2.02023e-12
-3.91897e-12
8.79913e-13
-3.77978e-12
-4.95797e-13
-3.18942e-12
-1.75239e-12
-2.2553e-12
-2.58205e-12
-1.20395e-12
-2.78466e-12
-3.80734e-13
-2.24166e-12
-9.34313e-13
3.26229e-13
-1.42379e-12
1.16166e-12
-2.95641e-12
2.17112e-12
-3.32791e-12
3.00708e-12
-2.85688e-12
3.46195e-12
-1.60178e-12
3.43104e-12
6.96994e-14
2.82618e-12
1.90933e-12
1.91126e-12
3.29617e-12
6.62968e-13
4.38082e-12
-7.06906e-13
4.82527e-12
-2.05683e-12
4.72778e-12
-3.23748e-12
4.07969e-12
-4.07747e-12
2.86015e-12
-4.49304e-12
1.29541e-12
-4.30776e-12
-6.8115e-13
-3.60508e-12
-2.45515e-12
-2.54372e-12
-3.64348e-12
-1.34544e-12
-3.98302e-12
-4.07921e-13
-3.17925e-12
-1.34227e-12
3.7089e-13
-1.79474e-12
1.25501e-12
-3.8406e-12
2.3719e-12
-4.44487e-12
3.2435e-12
-3.72856e-12
3.68519e-12
-2.04354e-12
3.59029e-12
1.6453e-13
2.98862e-12
2.51093e-12
1.91411e-12
4.3706e-12
6.15767e-13
5.67909e-12
-7.98339e-13
6.2393e-12
-2.20762e-12
6.13699e-12
-3.47481e-12
5.3468e-12
-4.42308e-12
3.80834e-12
-4.95902e-12
1.83127e-12
-4.68048e-12
-9.59763e-13
-3.91883e-12
-3.21688e-12
-2.79798e-12
-4.7644e-12
-1.53582e-12
-5.24525e-12
-4.81803e-13
-4.23334e-12
-1.82411e-12
4.79381e-13
-2.27419e-12
1.43994e-12
-4.80122e-12
2.5506e-12
-5.5556e-12
3.44337e-12
-4.62141e-12
3.85804e-12
-2.45829e-12
3.68642e-12
3.36074e-13
3.03468e-12
3.16259e-12
1.86221e-12
5.543e-12
6.52347e-13
6.88888e-12
-8.16038e-13
7.70761e-12
-2.25126e-12
7.57214e-12
-3.48855e-12
6.58401e-12
-4.45405e-12
4.77376e-12
-4.83821e-12
2.21536e-12
-4.73875e-12
-1.0593e-12
-4.04052e-12
-3.91518e-12
-2.94257e-12
-5.86243e-12
-1.65729e-12
-6.53061e-12
-5.17355e-13
-5.37335e-12
-2.34151e-12
4.70344e-13
-2.7446e-12
1.55515e-12
-5.8861e-12
2.6636e-12
-6.66414e-12
3.57971e-12
-5.53759e-12
4.04369e-12
-2.92235e-12
3.94442e-12
4.35267e-13
3.2497e-12
3.85724e-12
2.29081e-12
6.50181e-12
8.25319e-13
8.3543e-12
-7.59732e-13
9.29259e-12
-2.26385e-12
9.07619e-12
-3.40295e-12
7.72303e-12
-4.40316e-12
5.77391e-12
-4.81675e-12
2.62887e-12
-4.70964e-12
-1.16649e-12
-4.02152e-12
-4.60338e-12
-2.98067e-12
-6.90336e-12
-1.66477e-12
-7.84659e-12
-5.35242e-13
-6.50295e-12
-2.87679e-12
5.53605e-13
-3.29827e-12
1.53635e-12
-6.86892e-12
2.57497e-12
-7.70283e-12
3.51413e-12
-6.47682e-12
3.9419e-12
-3.35019e-12
3.99408e-12
3.83009e-13
3.55409e-12
4.29715e-12
2.52277e-12
7.53305e-12
9.86912e-13
9.89008e-12
-7.49478e-13
1.10289e-11
-2.39136e-12
1.0718e-11
-3.79311e-12
9.1247e-12
-4.45767e-12
6.4384e-12
-4.76139e-12
2.93251e-12
-4.61892e-12
-1.30904e-12
-3.85225e-12
-5.37013e-12
-2.82862e-12
-7.92706e-12
-1.63577e-12
-9.03952e-12
-4.66845e-13
-7.67196e-12
-3.34367e-12
4.39904e-13
-3.73824e-12
1.32726e-12
-7.75635e-12
2.24391e-12
-8.61954e-12
3.09525e-12
-7.32824e-12
3.76175e-12
-4.01677e-12
3.836e-12
3.08687e-13
3.52928e-12
4.60379e-12
2.54936e-12
8.5129e-12
1.02251e-12
1.14169e-11
-6.63319e-13
1.27147e-11
-2.29838e-12
1.2353e-11
-3.58523e-12
1.04115e-11
-4.33408e-12
7.18716e-12
-4.53011e-12
3.12846e-12
-4.2362e-12
-1.60301e-12
-3.58083e-12
-6.02558e-12
-2.49934e-12
-9.00862e-12
-1.359e-12
-1.01799e-11
-5.57428e-13
-8.4736e-12
-3.90113e-12
3.31323e-13
-4.06963e-12
1.08304e-12
-8.50815e-12
2.02062e-12
-9.5572e-12
2.86597e-12
-8.17366e-12
3.55771e-12
-4.70859e-12
3.70523e-12
1.611e-13
3.2708e-12
5.03815e-12
2.23697e-12
9.54665e-12
8.96493e-13
1.27573e-11
-6.13535e-13
1.42246e-11
-2.06848e-12
1.38078e-11
-3.25283e-12
1.15958e-11
-4.09239e-12
8.02665e-12
-4.18564e-12
3.22163e-12
-3.81696e-12
-1.97177e-12
-3.05323e-12
-6.78938e-12
-2.09965e-12
-9.96227e-12
-1.16824e-12
-1.11114e-11
-3.30271e-13
-9.31165e-12
-4.23144e-12
3.86579e-13
-4.45627e-12
1.02602e-12
-9.14766e-12
1.91241e-12
-1.04437e-11
2.66678e-12
-8.92811e-12
3.15061e-12
-5.19249e-12
3.33714e-12
-2.55116e-14
2.84256e-12
5.53266e-12
1.94556e-12
1.04436e-11
6.54284e-13
1.40485e-11
-6.67091e-13
1.55459e-11
-1.945e-12
1.50857e-11
-3.04794e-12
1.26986e-11
-3.66628e-12
8.64492e-12
-3.74306e-12
3.29833e-12
-3.24972e-12
-2.46519e-12
-2.55762e-12
-7.48156e-12
-1.66421e-12
-1.08558e-11
-9.10877e-13
-1.18648e-11
-2.14837e-13
-1.00078e-11
-4.44632e-12
2.51888e-13
-4.70822e-12
7.78587e-13
-9.67443e-12
1.31245e-12
-1.09776e-11
1.78698e-12
-9.40271e-12
2.16877e-12
-5.57435e-12
2.26679e-12
-1.23597e-13
1.89447e-12
5.90491e-12
1.07039e-12
1.12676e-11
1.82871e-13
1.49359e-11
-7.394e-13
1.64681e-11
-1.62884e-12
1.5975e-11
-2.35317e-12
1.34229e-11
-2.85681e-12
9.14849e-12
-2.9211e-12
3.36255e-12
-2.56816e-12
-2.81821e-12
-1.95119e-12
-8.0986e-12
-1.36259e-12
-1.14444e-11
-7.7747e-13
-1.245e-11
-2.90675e-13
-1.04946e-11
-4.73703e-12
1.22453e-13
-4.83074e-12
3.85646e-13
-9.9377e-12
5.86682e-13
-1.11787e-11
7.58301e-13
-9.5744e-12
9.51856e-13
-5.76798e-12
9.17013e-13
-8.88275e-14
6.12977e-13
6.20887e-12
2.09317e-13
1.16712e-11
-2.87315e-13
1.54325e-11
-7.65233e-13
1.69459e-11
-1.22607e-12
1.64358e-11
-1.51402e-12
1.37108e-11
-1.70782e-12
9.34222e-12
-1.65216e-12
3.30681e-12
-1.35666e-12
-3.11378e-12
-1.08201e-12
-8.37332e-12
-6.48849e-13
-1.18777e-11
-3.17051e-13
-1.27819e-11
-1.4024e-13
-1.06715e-11
-4.87731e-12
-3.27064e-14
-4.7981e-12
-1.19957e-13
-9.85052e-12
-2.87671e-13
-1.10111e-11
-3.2472e-13
-9.53743e-12
-4.99997e-13
-5.59278e-12
-4.91362e-13
-9.7536e-14
-5.53493e-13
6.27093e-12
-6.8912e-13
1.18067e-11
-7.19482e-13
1.54627e-11
-7.93515e-13
1.70199e-11
-8.62727e-13
1.65049e-11
-8.65152e-13
1.37131e-11
-5.15531e-13
8.99252e-12
-2.97951e-13
3.08916e-12
-1.00323e-13
-3.31148e-12
1.00947e-13
-8.57467e-12
1.39229e-13
-1.1916e-11
1.28852e-13
-1.27716e-11
6.45418e-14
-1.06073e-11
-4.81281e-12
-1.98057e-13
-4.60011e-12
-7.04642e-13
-9.34401e-12
-1.16523e-12
-1.05505e-11
-1.5719e-12
-9.13084e-12
-1.82089e-12
-5.34386e-12
-1.8723e-12
-4.61987e-14
-1.81226e-12
6.21081e-12
-1.46219e-12
1.14566e-11
-1.13558e-12
1.51361e-11
-7.91224e-13
1.66755e-11
-3.48301e-13
1.60619e-11
1.56027e-13
1.32087e-11
5.49615e-13
8.59886e-12
9.65587e-13
2.67311e-12
1.20252e-12
-3.54849e-12
1.26317e-12
-8.63539e-12
1.00133e-12
-1.16543e-11
5.82887e-13
-1.23532e-11
1.92576e-13
-1.02171e-11
-4.62027e-12
-3.61311e-13
-4.23887e-12
-1.13149e-12
-8.57391e-12
-1.96329e-12
-9.71884e-12
-2.69969e-12
-8.39451e-12
-3.0511e-12
-4.99253e-12
-3.09202e-12
-5.35663e-15
-2.72604e-12
5.84474e-12
-2.26683e-12
1.09973e-11
-1.54296e-12
1.44121e-11
-6.69693e-13
1.58021e-11
1.95512e-13
1.51967e-11
9.5484e-13
1.24493e-11
1.81481e-12
7.73881e-12
2.48179e-12
2.00606e-12
2.61454e-12
-3.68131e-12
2.3149e-12
-8.33583e-12
1.76421e-12
-1.11036e-11
1.03283e-12
-1.16219e-11
3.23316e-13
-9.50762e-12
-4.29699e-12
-4.6929e-13
-3.76966e-12
-1.43236e-12
-7.61092e-12
-2.55956e-12
-8.59172e-12
-3.50155e-12
-7.45261e-12
-4.06193e-12
-4.43224e-12
-4.16069e-12
9.3319e-14
-3.66669e-12
5.35066e-12
-2.88923e-12
1.02197e-11
-1.77415e-12
1.3297e-11
-4.75501e-13
1.45034e-11
8.69407e-13
1.38517e-11
2.0766e-12
1.1242e-11
3.02022e-12
6.79511e-12
3.64829e-12
1.37791e-12
3.70905e-12
-3.74215e-12
3.20111e-12
-7.82796e-12
2.35152e-12
-1.02541e-11
1.34808e-12
-1.06186e-11
4.35037e-13
-8.59466e-12
-3.86199e-12
-5.35678e-13
-3.23406e-12
-1.66643e-12
-6.48026e-12
-2.92563e-12
-7.33261e-12
-4.01734e-12
-6.36098e-12
-4.74929e-12
-3.70038e-12
-4.9504e-12
2.94338e-13
-4.39361e-12
4.79379e-12
-3.25735e-12
9.08339e-12
-1.86822e-12
1.19077e-11
-3.31409e-13
1.29665e-11
1.30744e-12
1.22127e-11
2.84543e-12
9.70396e-12
3.99048e-12
5.64998e-12
4.49616e-12
8.72153e-13
4.39613e-12
-3.64219e-12
3.74268e-12
-7.17459e-12
2.70468e-12
-9.2162e-12
1.52675e-12
-9.44074e-12
4.88748e-13
-7.55674e-12
-3.37329e-12
-5.50703e-13
-2.68344e-12
-1.72691e-12
-5.30415e-12
-3.06356e-12
-5.99606e-12
-4.27886e-12
-5.14578e-12
-5.11123e-12
-2.86812e-12
-5.30954e-12
4.92552e-13
-4.81993e-12
4.30409e-12
-3.55647e-12
7.81984e-12
-1.91359e-12
1.02648e-11
-9.17372e-14
1.11446e-11
1.74475e-12
1.03762e-11
3.39016e-12
8.05846e-12
4.53177e-12
4.50828e-12
4.98217e-12
4.21674e-13
4.75693e-12
-3.41704e-12
3.97288e-12
-6.39063e-12
2.83176e-12
-8.07516e-12
1.57452e-12
-8.18358e-12
4.94555e-13
-6.47687e-12
-2.87878e-12
-5.19218e-13
-2.16432e-12
-1.65933e-12
-4.16415e-12
-2.99234e-12
-4.66317e-12
-4.22183e-12
-3.91639e-12
-5.055e-12
-2.03505e-12
-5.25917e-12
6.96616e-13
-4.72475e-12
3.76956e-12
-3.49847e-12
6.59345e-12
-1.77694e-12
8.54315e-12
1.50593e-13
9.21692e-12
2.0468e-12
8.47985e-12
3.65775e-12
6.44742e-12
4.71344e-12
3.45249e-12
5.07381e-12
6.12152e-14
4.76414e-12
-3.10746e-12
3.92445e-12
-5.55103e-12
2.75912e-12
-6.90993e-12
1.50873e-12
-6.93328e-12
4.61759e-13
-5.42999e-12
-2.41707e-12
-4.52583e-13
-1.71184e-12
-1.48635e-12
-3.1305e-12
-2.72047e-12
-3.42917e-12
-3.85824e-12
-2.77874e-12
-4.62276e-12
-1.27065e-12
-4.79001e-12
8.6375e-13
-4.25974e-12
3.23917e-12
-3.07951e-12
5.41311e-12
-1.43218e-12
6.89571e-12
4.26294e-13
7.35833e-12
2.22428e-12
6.68176e-12
3.69562e-12
4.97598e-12
4.61725e-12
2.53077e-12
4.88186e-12
-2.03493e-13
4.5131e-12
-2.7388e-12
3.66715e-12
-4.70517e-12
2.53685e-12
-5.77973e-12
1.35622e-12
-5.75274e-12
3.98116e-13
-4.47198e-12
-2.019e-12
-3.61933e-13
-1.35003e-12
-1.24088e-12
-2.25168e-12
-2.30927e-12
-2.36092e-12
-3.2841e-12
-1.80403e-12
-3.93386e-12
-6.21012e-13
-4.03001e-12
9.59777e-13
-3.50409e-12
2.71313e-12
-2.41649e-12
4.32539e-12
-9.24419e-13
5.40352e-12
7.50146e-13
5.68365e-12
2.34581e-12
5.08598e-12
3.6135e-12
3.70818e-12
4.37348e-12
1.77068e-12
4.52631e-12
-3.56422e-13
4.12126e-12
-2.33385e-12
3.30355e-12
-3.88755e-12
2.23788e-12
-4.71416e-12
1.16627e-12
-4.68123e-12
3.16234e-13
-3.62205e-12
-1.70282e-12
-2.86466e-13
-1.06368e-12
-9.79106e-13
-1.55917e-12
-1.86421e-12
-1.47595e-12
-2.69405e-12
-9.74337e-13
-3.09735e-12
-2.17851e-13
-3.1288e-12
9.91103e-13
-2.61662e-12
2.20081e-12
-1.63167e-12
3.34032e-12
-3.36477e-13
4.1082e-12
1.10647e-12
4.24059e-12
2.48821e-12
3.70411e-12
3.52076e-12
2.67552e-12
4.13335e-12
1.15797e-12
4.15864e-12
-3.81817e-13
3.69909e-12
-1.87441e-12
2.9129e-12
-3.10147e-12
1.91797e-12
-3.71933e-12
9.52208e-13
-3.71557e-12
2.20683e-13
-2.89063e-12
-1.48219e-12
-1.32914e-13
-9.30894e-13
-6.46116e-13
-1.04611e-12
-1.31427e-12
-8.07932e-13
-2.06689e-12
-2.21866e-13
-2.62787e-12
3.42993e-13
-2.53366e-12
8.9675e-13
-1.91499e-12
1.58201e-12
-9.65272e-13
2.39047e-12
2.24235e-13
2.91856e-12
1.49621e-12
2.96849e-12
2.70573e-12
2.49447e-12
3.52986e-12
1.85127e-12
3.87882e-12
8.089e-13
3.75913e-12
-2.62247e-13
3.26825e-12
-1.38364e-12
2.51146e-12
-2.34479e-12
1.57632e-12
-2.7843e-12
7.47989e-13
-2.88735e-12
1.32752e-13
-2.2755e-12
-1.34949e-12
-2.72937e-13
-6.58085e-13
-6.11601e-13
-7.07585e-13
-1.1405e-12
-2.79172e-13
-1.63492e-12
2.72409e-13
-1.71568e-12
4.23622e-13
-1.52346e-12
7.0439e-13
-9.32129e-13
9.9054e-13
-2.33294e-13
1.6915e-12
7.04958e-13
1.98018e-12
1.65153e-12
2.02178e-12
2.78378e-12
1.36211e-12
3.40831e-12
1.22662e-12
3.90153e-12
3.15565e-13
3.81433e-12
-1.75159e-13
3.01948e-12
-5.88891e-13
2.07403e-12
-1.39945e-12
1.00951e-12
-1.71989e-12
3.1676e-13
-2.19471e-12
-2.36461e-14
-1.9352e-12
-1.37319e-12
1.41078e-13
-7.99284e-13
-4.19729e-13
-1.46905e-13
-1.07175e-12
3.72716e-13
-2.0399e-12
1.24043e-12
-1.85151e-12
2.35107e-13
-1.85185e-12
7.04601e-13
-1.46307e-12
6.01641e-13
-9.44734e-13
1.17304e-12
8.45842e-13
1.89487e-13
2.46894e-12
3.98568e-13
2.9391e-12
8.91843e-13
2.94209e-12
1.22351e-12
3.65188e-12
-3.9433e-13
3.96323e-12
-4.86608e-13
2.70741e-12
6.66827e-13
1.78045e-12
-4.72586e-13
5.5412e-13
-4.93658e-13
1.21214e-13
-1.7619e-12
-1.30202e-13
-1.68388e-12
-1.50343e-12
3.79089e-13
-1.17847e-12
5.45886e-13
-3.13801e-13
-7.04395e-13
1.6229e-12
-2.78503e-12
3.32097e-12
-6.47568e-15
-2.54354e-12
1.44167e-12
-7.43644e-13
-1.24167e-12
3.28489e-12
-2.67383e-12
2.60511e-12
2.65989e-12
-5.14433e-12
7.16013e-12
-4.10176e-12
4.77797e-12
3.27392e-12
1.66476e-12
4.33663e-12
5.28432e-12
-4.01397e-12
7.42181e-12
-2.62418e-12
3.7247e-12
4.36386e-12
-5.43907e-13
3.79595e-12
-1.31086e-12
2.7322e-13
5.66961e-14
-3.12953e-12
2.57449e-13
-1.8847e-12
-1.246e-12
4.26553e-12
-5.44405e-12
5.53109e-12
-1.57942e-12
1.87167e-12
5.28227e-12
-5.14541e-12
1.0338e-11
4.6116e-12
-1.23006e-11
1.31731e-11
-9.30517e-12
1.7596e-12
1.46983e-11
-1.01591e-11
1.45237e-11
7.01283e-12
-2.23163e-11
2.23292e-11
-1.94181e-11
7.01235e-12
1.85907e-11
-7.38498e-12
1.87339e-11
7.78783e-12
-1.91868e-11
1.87174e-11
-1.35537e-11
4.9006e-12
1.81806e-11
-7.02748e-12
1.5724e-11
-3.90744e-12
-2.84686e-12
5.45887e-13
-7.5829e-12
-8.85915e-13
-4.52934e-13
-2.13192e-12
7.53615e-12
-1.29802e-11
2.17588e-11
-1.58021e-11
4.65018e-12
2.23909e-11
-1.90134e-11
3.40016e-11
1.42814e-11
-4.55954e-11
5.28282e-11
-4.7852e-11
6.44249e-12
6.1084e-11
-4.39554e-11
6.49216e-11
1.92591e-11
-8.55307e-11
8.31361e-11
-8.32952e-11
1.67298e-11
8.4997e-11
-3.9718e-11
7.51817e-11
1.75319e-11
-7.64367e-11
6.07512e-11
-5.6773e-11
9.61335e-12
6.93184e-11
-2.72806e-11
5.2618e-11
-7.27823e-12
-2.28493e-11
1.03232e-11
-2.51843e-11
1.77866e-12
8.09157e-12
-3.53257e-13
1.74267e-12
-1.47228e-11
1.36812e-11
-2.77405e-11
9.05872e-13
3.51663e-11
-3.13451e-11
6.62526e-11
3.09777e-12
-8.00381e-11
4.10263e-11
-8.57803e-11
1.5745e-11
8.63654e-11
-2.99345e-11
1.10601e-10
2.1422e-11
-1.36887e-10
8.40525e-11
-1.45926e-10
1.63214e-11
1.52728e-10
-3.45153e-11
1.26019e-10
1.33207e-11
-1.24273e-10
6.6215e-11
-1.09667e-10
1.72134e-11
1.1832e-10
-5.96368e-12
7.57951e-11
1.58778e-11
-4.46907e-11
1.77458e-11
-2.70522e-11
4.13889e-12
2.16986e-11
3.78576e-12
1.17663e-12
-1.5899e-11
-1.94282e-11
-7.13507e-12
-1.61737e-11
3.19126e-11
2.18833e-11
2.81962e-11
1.42701e-11
-7.24242e-11
-3.29927e-11
-3.85169e-11
-3.5481e-12
5.69214e-11
6.91174e-11
3.79362e-11
1.8667e-11
-8.64361e-11
-4.4747e-11
-8.25111e-11
2.10485e-11
8.69334e-11
6.01781e-11
8.68896e-11
-3.73098e-12
-6.0363e-11
-2.05476e-11
-9.285e-11
3.31572e-11
6.4616e-11
4.94854e-11
5.94675e-11
1.84579e-11
-1.36626e-11
5.52374e-12
-1.41175e-11
3.30272e-12
2.39203e-11
7.08883e-12
-7.88526e-12
-8.01285e-12
-1.69607e-11
1.94138e-12
-3.65223e-12
1.86052e-11
1.89392e-11
5.60585e-12
-2.68253e-12
-5.08014e-11
-1.85206e-11
-2.26777e-11
2.16833e-11
1.67185e-11
4.17612e-11
1.78594e-11
1.24334e-11
-5.71073e-11
-2.64077e-11
-4.36689e-11
1.24584e-11
4.80684e-11
4.97716e-11
4.95774e-11
2.15292e-11
-3.21197e-11
-1.82306e-11
-5.30893e-11
2.4051e-11
2.23353e-11
-2.7309e-12
8.62503e-11
1.77086e-12
-1.81634e-11
-5.0869e-12
-7.25874e-12
1.9189e-12
1.69155e-11
9.00816e-12
-5.18805e-12
-2.8239e-12
-3.70956e-12
4.63945e-13
7.46772e-12
7.42896e-12
1.60483e-11
-2.97369e-12
-3.73455e-12
-3.10175e-11
-4.60111e-12
-2.18101e-11
1.01987e-11
1.91976e-12
2.81624e-11
-1.0337e-13
6.04009e-12
-3.49839e-11
-1.17531e-11
-2.58747e-11
1.14706e-11
2.48456e-11
3.53469e-11
2.57022e-11
1.98163e-11
-1.65882e-11
-8.69584e-12
-2.45763e-11
-1.09964e-11
2.46368e-11
2.89556e-11
4.62993e-11
4.15769e-12
6.63542e-12
-5.63355e-12
2.53345e-12
-1.88364e-12
1.31665e-11
7.12491e-12
-1.71733e-12
-1.10574e-12
-5.19538e-14
-1.20047e-12
8.55088e-12
-1.1729e-12
1.34584e-11
-7.88029e-12
2.07761e-12
-1.96357e-11
-2.41259e-12
-1.7319e-11
9.80386e-12
-1.02958e-11
2.01333e-11
-1.04319e-11
4.22417e-12
-1.90739e-11
-8.91824e-12
-1.27314e-11
9.40167e-12
6.5266e-12
2.5713e-11
9.39167e-12
1.11951e-11
-2.06941e-12
-1.01979e-11
-3.18237e-12
-3.8643e-12
1.8304e-11
1.29649e-11
2.94709e-11
4.50258e-12
1.50986e-11
-3.84096e-12
1.08778e-11
-2.26142e-12
1.15878e-11
4.86383e-12
4.77778e-14
-1.1528e-12
2.03037e-12
-3.18224e-12
6.24635e-12
-5.38808e-12
8.53805e-12
-1.01712e-11
5.02418e-12
-1.6121e-11
3.79061e-12
-1.60846e-11
7.00595e-12
-1.35103e-11
9.26585e-12
-1.2691e-11
3.9802e-12
-1.37875e-11
-2.61716e-15
-8.74786e-12
5.31952e-12
1.20519e-12
9.6954e-12
5.0165e-12
4.20754e-12
3.41915e-12
-4.78865e-12
5.81452e-12
-3.24897e-12
1.6765e-11
3.34467e-12
2.2878e-11
1.05808e-12
1.73859e-11
-1.81365e-12
1.37503e-11
-9.68627e-13
1.07434e-11
3.89548e-12
3.93819e-13
-1.54605e-12
1.98958e-12
-4.77737e-12
4.5104e-12
-7.90826e-12
5.95737e-12
-1.16175e-11
4.90154e-12
-1.50646e-11
4.43102e-12
-1.56135e-11
5.29363e-12
-1.43723e-11
5.47473e-12
-1.28715e-11
2.87751e-12
-1.11897e-11
8.3955e-13
-6.70933e-12
2.30533e-12
-2.60035e-13
3.28284e-12
4.03954e-12
3.34089e-13
6.36844e-12
-3.77611e-12
9.92525e-12
-3.28647e-12
1.62759e-11
-2.2558e-13
1.98176e-11
-5.52309e-13
1.77132e-11
-1.25777e-12
1.44563e-11
-5.56692e-13
1.00429e-11
3.33898e-12
3.83693e-13
-1.92933e-12
1.48223e-12
-5.87545e-12
2.96213e-12
-9.38772e-12
3.89988e-12
-1.25548e-11
3.73262e-12
-1.48969e-11
3.54433e-12
-1.54248e-11
3.62783e-12
-1.44554e-11
3.24802e-12
-1.24913e-11
1.71957e-12
-9.66088e-12
4.12312e-13
-5.40168e-12
3.96502e-13
-2.43849e-13
1.74194e-13
4.26221e-12
-1.43642e-12
7.97941e-12
-3.34255e-12
1.18317e-11
-3.13847e-12
1.60722e-11
-1.67202e-12
1.83515e-11
-1.24636e-12
1.72879e-11
-1.02831e-12
1.42386e-11
-3.76053e-13
9.39096e-12
2.96305e-12
2.41828e-13
-2.17093e-12
8.71214e-13
-6.5046e-12
1.64988e-12
-1.01662e-11
2.18054e-12
-1.30853e-11
2.24674e-12
-1.49629e-11
2.17701e-12
-1.53549e-11
2.04921e-12
-1.43274e-11
1.62713e-12
-1.2069e-11
7.38933e-13
-8.77248e-12
-1.06349e-13
-4.55621e-12
-5.90397e-13
2.40392e-13
-1.11159e-12
4.78359e-12
-2.03788e-12
8.90589e-12
-2.90277e-12
1.26968e-11
-2.82936e-12
1.59989e-11
-2.08814e-12
1.76105e-11
-1.52191e-12
1.67219e-11
-9.8166e-13
1.36986e-11
-3.44062e-13
8.75354e-12
2.61903e-12
8.06974e-14
2.84422e-13
5.27603e-13
6.99112e-13
7.40101e-13
7.16475e-13
6.40596e-13
4.48954e-13
7.94515e-14
-4.0648e-13
-9.58223e-13
-1.54311e-12
-2.16909e-12
-2.62193e-12
-2.6104e-12
-2.20814e-12
-1.68886e-12
-1.08667e-12
-4.44249e-13
)
;

boundaryField
{
    top
    {
        type            calculated;
        value           nonuniform List<scalar> 
20
(
-2.25157e-12
-6.70827e-12
-1.04093e-11
-1.32567e-11
-1.50038e-11
-1.53312e-11
-1.42515e-11
-1.18773e-11
-8.40293e-12
-4.07022e-12
7.92188e-13
5.36853e-12
9.53192e-12
1.31497e-11
1.59875e-11
1.72082e-11
1.62026e-11
1.30964e-11
8.11116e-12
2.17478e-12
)
;
    }
    left
    {
        type            calculated;
        value           uniform 0;
    }
    right
    {
        type            calculated;
        value           uniform 0;
    }
    bottom
    {
        type            calculated;
        value           nonuniform List<scalar> 
20
(
0
0
0
0
-3.9443e-31
-7.88861e-31
-7.88861e-31
0
0
0
0
0
-7.88861e-31
0
-7.88861e-31
0
-3.9443e-31
0
0
0
)
;
    }
    front
    {
        type            empty;
        value           nonuniform List<scalar> 0();
    }
    back
    {
        type            empty;
        value           nonuniform List<scalar> 0();
    }
    frontAndBack
    {
        type            empty;
        value           nonuniform List<scalar> 0();
    }
}


// ************************************************************************* //
