/*--------------------------------*- C++ -*----------------------------------*\
  =========                 |
  \\      /  F ield         | OpenFOAM: The Open Source CFD Toolbox
   \\    /   O peration     | Website:  https://openfoam.org
    \\  /    A nd           | Version:  10
     \\/     M anipulation  |
\*---------------------------------------------------------------------------*/
FoamFile
{
    format      ascii;
    class       volScalarField;
    location    "0.09";
    object      T;
}
// * * * * * * * * * * * * * * * * * * * * * * * * * * * * * * * * * * * * * //

dimensions      [0 0 0 1 0 0 0];

internalField   nonuniform List<scalar> 
800
(
300.039
300.05
300.069
300.097
300.132
300.17
300.21
300.246
300.275
300.29
300.29
300.274
300.245
300.209
300.17
300.132
300.098
300.07
300.05
300.039
300.058
300.072
300.1
300.137
300.181
300.229
300.276
300.318
300.351
300.369
300.369
300.35
300.318
300.276
300.229
300.182
300.138
300.101
300.073
300.058
300.097
300.122
300.166
300.223
300.288
300.353
300.414
300.466
300.505
300.527
300.527
300.506
300.467
300.416
300.356
300.291
300.226
300.168
300.123
300.098
300.161
300.202
300.273
300.363
300.459
300.552
300.632
300.697
300.743
300.768
300.769
300.746
300.701
300.638
300.558
300.466
300.368
300.277
300.204
300.162
300.25
300.313
300.422
300.558
300.7
300.83
300.936
301.016
301.069
301.097
301.1
301.076
301.025
300.947
300.841
300.71
300.566
300.427
300.315
300.251
300.355
300.446
300.604
300.8
301.003
301.185
301.326
301.425
301.487
301.517
301.521
301.497
301.439
301.341
301.2
301.016
300.809
300.609
300.448
300.356
300.465
300.586
300.799
301.068
301.35
301.6
301.792
301.918
301.992
302.026
302.031
302.005
301.937
301.811
301.619
301.363
301.075
300.801
300.586
300.464
300.563
300.712
300.983
301.334
301.711
302.052
302.313
302.482
302.574
302.614
302.621
302.591
302.503
302.333
302.069
301.719
301.333
300.977
300.706
300.558
300.633
300.807
301.133
301.572
302.059
302.512
302.865
303.095
303.216
303.265
303.274
303.235
303.115
302.882
302.518
302.051
301.554
301.113
300.791
300.621
300.665
300.857
301.233
301.76
302.365
302.948
303.418
303.728
303.893
303.961
303.97
303.912
303.745
303.421
302.933
302.331
301.716
301.194
300.829
300.645
300.657
300.86
301.273
301.877
302.602
303.329
303.936
304.352
304.58
304.675
304.682
304.593
304.353
303.912
303.277
302.531
301.803
301.213
300.819
300.629
300.614
300.82
301.256
301.923
302.76
303.634
304.393
304.933
305.242
305.375
305.377
305.238
304.9
304.319
303.522
302.632
301.807
301.17
300.764
300.577
300.546
300.748
301.195
301.908
302.84
303.853
304.765
305.44
305.843
306.019
306.01
305.805
305.347
304.606
303.644
302.624
301.73
301.074
300.676
300.501
300.464
300.656
301.096
301.828
302.825
303.956
305.015
305.827
306.331
306.552
306.525
306.237
305.641
304.736
303.624
302.51
301.586
300.942
300.569
300.411
300.376
300.551
300.965
301.681
302.702
303.91
305.088
306.03
306.635
306.9
306.846
306.461
305.723
304.668
303.445
302.291
301.385
300.787
300.456
300.32
300.29
300.442
300.811
301.475
302.463
303.685
304.936
305.979
306.671
306.973
306.885
306.401
305.533
304.367
303.103
301.979
301.146
300.622
300.345
300.236
300.213
300.336
300.646
301.223
302.118
303.278
304.524
305.612
306.359
306.679
306.554
305.988
305.034
303.836
302.618
301.599
300.886
300.461
300.246
300.163
300.148
300.242
300.482
300.947
301.699
302.719
303.868
304.917
305.657
305.966
305.81
305.205
304.243
303.11
302.035
301.192
300.634
300.318
300.164
300.106
300.097
300.163
300.335
300.679
301.256
302.073
303.033
303.947
304.606
304.873
304.7
304.118
303.25
302.289
301.438
300.81
300.416
300.202
300.101
300.064
300.059
300.102
300.216
300.447
300.847
301.433
302.147
302.85
303.367
303.566
303.399
302.91
302.222
301.508
300.913
300.497
300.248
300.118
300.058
300.036
300.034
300.06
300.128
300.269
300.518
300.89
301.355
301.823
302.171
302.296
302.16
301.807
301.34
300.881
300.518
300.275
300.134
300.063
300.031
300.019
300.018
300.032
300.07
300.148
300.285
300.493
300.756
301.024
301.221
301.286
301.194
300.979
300.709
300.456
300.262
300.137
300.066
300.031
300.015
300.009
300.009
300.016
300.035
300.074
300.142
300.244
300.373
300.504
300.599
300.626
300.574
300.463
300.331
300.21
300.119
300.062
300.03
300.014
300.007
300.004
300.004
300.007
300.016
300.033
300.064
300.108
300.163
300.219
300.257
300.267
300.242
300.194
300.137
300.087
300.049
300.025
300.012
300.006
300.003
300.002
300.002
300.003
300.007
300.014
300.026
300.043
300.064
300.085
300.098
300.101
300.091
300.073
300.052
300.033
300.019
300.01
300.005
300.002
300.001
300.001
300.001
300.001
300.003
300.005
300.01
300.016
300.023
300.029
300.034
300.035
300.031
300.025
300.018
300.011
300.007
300.003
300.002
300.001
300
300
300
300
300.001
300.002
300.003
300.005
300.007
300.009
300.011
300.011
300.01
300.008
300.006
300.004
300.002
300.001
300.001
300
300
300
300
300
300
300.001
300.001
300.002
300.002
300.003
300.003
300.003
300.003
300.002
300.002
300.001
300.001
300
300
300
300
300
300
300
300
300
300
300
300.001
300.001
300.001
300.001
300.001
300.001
300
300
300
300
300
300
300
300
300
300
300
300
300
300
300
300
300
300
300
300
300
300
300
300
300
300
300
300
300
300
300
300
300
300
300
300
300
300
300
300
300
300
300
300
300
300
300
300
300
300
300
300
300
300
300
300
300
300
300
300
300
300
300
300
300
300
300
300
300
300
300
300
300
300
300
300
300
300
300
300
300
300
300
300
300
300
300
300
300
300
300
300
300
300
300
300
300
300
300
300
300
300
300
300
300
300
300
300
300
300
300
300
300
300
300
300
300
300
300
300
300
300
300
300
300
300
300
300
300
300
300
300
300
300
300
300
300
300
300
300
300
300
300
300
300
300
300
300
300
300
300
300
300
300
300
300
300
300
300
300
300
300
300
300
300
300
300
300
300
300
300
300
300
300
300
300
300
300
300
300
300
300
300
300
300
300
300
300
300
300
300
300
300
300
300
300
300
300
300
300
300
300
300
300
300
300
300
300
300
300
300
300
300
300
300
300
300
300
300
300
300
300
300
300
300
300
300
300
)
;

boundaryField
{
    top
    {
        type            inletOutlet;
        inletValue      uniform 300;
        value           nonuniform List<scalar> 
20
(
300
300
300
300
300
300
300
300
300
300
300
300
300
300
300
300
300
300
300
300
)
;
    }
    left
    {
        type            zeroGradient;
    }
    right
    {
        type            zeroGradient;
    }
    bottom
    {
        type            zeroGradient;
    }
    front
    {
        type            empty;
    }
    back
    {
        type            empty;
    }
    frontAndBack
    {
        type            empty;
    }
}


// ************************************************************************* //
