/*--------------------------------*- C++ -*----------------------------------*\
  =========                 |
  \\      /  F ield         | OpenFOAM: The Open Source CFD Toolbox
   \\    /   O peration     | Website:  https://openfoam.org
    \\  /    A nd           | Version:  10
     \\/     M anipulation  |
\*---------------------------------------------------------------------------*/
FoamFile
{
    format      ascii;
    class       volVectorField;
    location    "0.09";
    object      U;
}
// * * * * * * * * * * * * * * * * * * * * * * * * * * * * * * * * * * * * * //

dimensions      [0 1 -1 0 0 0 0];

internalField   nonuniform List<vector> 
800
(
(1.38097e-06 -3.76361e-07 0)
(2.4323e-05 -3.13004e-06 0)
(6.85182e-05 -1.24185e-05 0)
(0.000123301 -1.28423e-05 0)
(0.000164245 -5.11323e-06 0)
(0.000180425 -1.09207e-06 0)
(0.000167751 5.18284e-06 0)
(0.000129802 7.2923e-06 0)
(7.29348e-05 1.31469e-05 0)
(4.06839e-06 1.38551e-05 0)
(-6.40898e-05 1.16834e-05 0)
(-0.000126332 1.0932e-05 0)
(-0.000179557 9.38395e-06 0)
(-0.000215306 7.62448e-06 0)
(-0.000216951 -6.4408e-06 0)
(-0.00018148 -1.23863e-05 0)
(-0.000124274 -1.58487e-05 0)
(-6.81316e-05 -4.43811e-06 0)
(-2.1588e-05 -7.37194e-06 0)
(2.49848e-06 2.39469e-06 0)
(1.02072e-05 -2.84394e-05 0)
(8.6319e-05 -6.60946e-05 0)
(0.000192548 -9.79301e-05 0)
(0.000300462 -9.12662e-05 0)
(0.000382282 -5.20617e-05 0)
(0.000416237 -7.31181e-06 0)
(0.000382992 5.6969e-05 0)
(0.000290065 8.92694e-05 0)
(0.000156888 0.00012479 0)
(2.02227e-06 0.000131077 0)
(-0.000153576 0.000123599 0)
(-0.000298849 0.000110905 0)
(-0.000418694 8.52836e-05 0)
(-0.000487666 3.83071e-05 0)
(-0.000489224 -3.54783e-05 0)
(-0.000430515 -8.22514e-05 0)
(-0.000329382 -0.000108037 0)
(-0.000202835 -9.37828e-05 0)
(-8.10255e-05 -7.90649e-05 0)
(-6.49407e-06 -2.10419e-05 0)
(1.55122e-05 -8.9223e-05 0)
(0.000132966 -0.000186618 0)
(0.000281217 -0.000223416 0)
(0.000418425 -0.00019897 0)
(0.000516955 -0.000115452 0)
(0.000549109 -4.7526e-06 0)
(0.00051082 0.000128159 0)
(0.00039841 0.00022198 0)
(0.000223279 0.000296822 0)
(1.36012e-05 0.000319514 0)
(-0.000208935 0.000309496 0)
(-0.000413906 0.000271281 0)
(-0.000572254 0.000198782 0)
(-0.000659952 7.59346e-05 0)
(-0.000671827 -6.17136e-05 0)
(-0.000605191 -0.000174736 0)
(-0.000466995 -0.000242427 0)
(-0.000290628 -0.000249559 0)
(-0.000122495 -0.000203986 0)
(-1.21212e-05 -7.5624e-05 0)
(2.45032e-05 -0.000172335 0)
(0.000164221 -0.000340398 0)
(0.000334826 -0.000376039 0)
(0.000495987 -0.000328811 0)
(0.000612071 -0.000187148 0)
(0.000650732 4.81071e-06 0)
(0.000597852 0.000209847 0)
(0.000459757 0.000383912 0)
(0.000255324 0.000507808 0)
(9.92171e-06 0.000557975 0)
(-0.000246971 0.00054479 0)
(-0.000481561 0.000469016 0)
(-0.000659241 0.000330624 0)
(-0.000768368 0.000134823 0)
(-0.000793137 -8.43596e-05 0)
(-0.000716566 -0.000286656 0)
(-0.000554892 -0.000416107 0)
(-0.000343259 -0.000444742 0)
(-0.000144758 -0.000360083 0)
(-1.49465e-05 -0.000146264 0)
(8.09584e-06 -0.000251704 0)
(0.000135018 -0.000504899 0)
(0.000333259 -0.000560137 0)
(0.000531127 -0.000483565 0)
(0.000668727 -0.000273568 0)
(0.000713867 9.46473e-06 0)
(0.000648738 0.000317541 0)
(0.000490974 0.000563405 0)
(0.000267337 0.000747177 0)
(-1.26647e-06 0.000823672 0)
(-0.000281387 0.000805899 0)
(-0.000542162 0.000692862 0)
(-0.000750488 0.000483098 0)
(-0.000882878 0.000215256 0)
(-0.000907835 -0.000116487 0)
(-0.000812876 -0.000417082 0)
(-0.000626357 -0.000617855 0)
(-0.000385876 -0.000671371 0)
(-0.000159467 -0.000537369 0)
(-1.41666e-05 -0.000225458 0)
(1.14905e-05 -0.000321259 0)
(0.000147886 -0.000676484 0)
(0.000362753 -0.000774464 0)
(0.000576792 -0.000657118 0)
(0.000717171 -0.000365269 0)
(0.000754497 2.06435e-05 0)
(0.000681718 0.000438232 0)
(0.000506667 0.000765156 0)
(0.000263036 0.00100242 0)
(-1.46814e-05 0.0011043 0)
(-0.000305531 0.00108416 0)
(-0.000580474 0.000940408 0)
(-0.000810823 0.000664953 0)
(-0.000966323 0.000311362 0)
(-0.000993227 -0.000165013 0)
(-0.000883688 -0.000567092 0)
(-0.00068432 -0.000839628 0)
(-0.000431388 -0.000919723 0)
(-0.00018549 -0.000737795 0)
(-1.87834e-05 -0.000314901 0)
(2.07048e-05 -0.000404545 0)
(0.000179205 -0.000862077 0)
(0.000401013 -0.000998311 0)
(0.000615987 -0.000834491 0)
(0.000755406 -0.000450123 0)
(0.000782154 4.94737e-05 0)
(0.000695359 0.000568469 0)
(0.00050621 0.00098978 0)
(0.000262313 0.00125447 0)
(-1.32035e-05 0.00139104 0)
(-0.000312631 0.00136886 0)
(-0.000586977 0.00119163 0)
(-0.000814218 0.000860353 0)
(-0.000957412 0.000404728 0)
(-0.000987191 -0.000203633 0)
(-0.000901059 -0.000715026 0)
(-0.000712355 -0.00106328 0)
(-0.000459641 -0.00117739 0)
(-0.000201009 -0.000958798 0)
(-2.02519e-05 -0.000415687 0)
(1.71261e-05 -0.000501366 0)
(0.000189001 -0.00106881 0)
(0.000423393 -0.00122288 0)
(0.000640693 -0.00101642 0)
(0.000787128 -0.000535212 0)
(0.000824537 8.07973e-05 0)
(0.000744693 0.000706599 0)
(0.000574711 0.00120494 0)
(0.000324604 0.00152129 0)
(9.80068e-06 0.00169432 0)
(-0.000310085 0.00166034 0)
(-0.00058318 0.00143056 0)
(-0.000802886 0.00105676 0)
(-0.000947005 0.000488561 0)
(-0.000980114 -0.000221489 0)
(-0.000896871 -0.000852561 0)
(-0.000714132 -0.00127723 0)
(-0.000465677 -0.00143904 0)
(-0.000204941 -0.00118953 0)
(-2.13779e-05 -0.000521211 0)
(2.79966e-05 -0.000606199 0)
(0.000200147 -0.00127892 0)
(0.000413346 -0.00143989 0)
(0.000621232 -0.00120188 0)
(0.000767595 -0.000624146 0)
(0.000819966 8.76509e-05 0)
(0.000780688 0.000818985 0)
(0.000633006 0.00140616 0)
(0.000368221 0.00182267 0)
(2.67628e-05 0.00202992 0)
(-0.000325256 0.00197717 0)
(-0.000638567 0.00168485 0)
(-0.000850132 0.00122358 0)
(-0.000949029 0.000560912 0)
(-0.000962736 -0.000244348 0)
(-0.000868619 -0.000995954 0)
(-0.000681515 -0.00148521 0)
(-0.000444734 -0.00169311 0)
(-0.000193061 -0.0014215 0)
(-1.49161e-05 -0.000624902 0)
(1.95491e-05 -0.000705198 0)
(0.000166764 -0.0014673 0)
(0.000355991 -0.00163562 0)
(0.000543776 -0.00138031 0)
(0.000704349 -0.000735187 0)
(0.000784981 7.25305e-05 0)
(0.000765349 0.000891611 0)
(0.000634205 0.00160597 0)
(0.000374103 0.00213315 0)
(3.90857e-05 0.0023787 0)
(-0.000305898 0.00231121 0)
(-0.000609364 0.0019544 0)
(-0.000819186 0.00136625 0)
(-0.000912633 0.0006087 0)
(-0.000900692 -0.00028737 0)
(-0.000800066 -0.00113849 0)
(-0.000615806 -0.00169662 0)
(-0.000383723 -0.00192827 0)
(-0.000180641 -0.00162072 0)
(-2.9365e-05 -0.000727939 0)
(1.13299e-05 -0.000783494 0)
(0.000130712 -0.00162997 0)
(0.000307489 -0.00182257 0)
(0.000496174 -0.00155417 0)
(0.000659538 -0.000873501 0)
(0.000751585 4.67172e-05 0)
(0.000725649 0.000964748 0)
(0.000575483 0.00180707 0)
(0.000327218 0.00242363 0)
(2.99431e-05 0.00270245 0)
(-0.00027605 0.00262419 0)
(-0.000551271 0.00220726 0)
(-0.000761397 0.00152443 0)
(-0.000855462 0.000638417 0)
(-0.00082213 -0.00035461 0)
(-0.000701311 -0.00128212 0)
(-0.000520838 -0.00190186 0)
(-0.000321827 -0.00213521 0)
(-0.000135722 -0.00178673 0)
(-9.85203e-06 -0.000814541 0)
(2.01713e-05 -0.000855454 0)
(0.000133057 -0.0017725 0)
(0.000291852 -0.00200903 0)
(0.000463316 -0.00171968 0)
(0.000596353 -0.000996806 0)
(0.000672687 1.12259e-05 0)
(0.000644732 0.00105747 0)
(0.000498725 0.00200493 0)
(0.000268811 0.00269141 0)
(-3.61403e-07 0.00299066 0)
(-0.000268442 0.00290299 0)
(-0.000514348 0.00244079 0)
(-0.000695308 0.00167345 0)
(-0.000767155 0.00065487 0)
(-0.000718613 -0.000444735 0)
(-0.000590586 -0.00143231 0)
(-0.000423561 -0.00208943 0)
(-0.000253317 -0.00230711 0)
(-9.84074e-05 -0.00193895 0)
(-7.84091e-07 -0.000871707 0)
(1.16241e-05 -0.000920228 0)
(9.75435e-05 -0.00189405 0)
(0.000208409 -0.00215595 0)
(0.000314119 -0.00184616 0)
(0.000405374 -0.00108798 0)
(0.000461704 -1.97167e-05 0)
(0.000435871 0.001147 0)
(0.000309781 0.00218301 0)
(0.000130665 0.00291588 0)
(-5.65325e-05 0.00322135 0)
(-0.00024205 0.00312577 0)
(-0.000410062 0.00262828 0)
(-0.000539006 0.00179168 0)
(-0.000597646 0.000668992 0)
(-0.000562307 -0.000532498 0)
(-0.000458252 -0.00156663 0)
(-0.000331675 -0.00224155 0)
(-0.000209334 -0.00244385 0)
(-0.000100562 -0.00205922 0)
(-1.65743e-05 -0.00092328 0)
(5.7255e-06 -0.00096012 0)
(4.93723e-05 -0.0019754 0)
(9.74011e-05 -0.00223188 0)
(0.000135947 -0.0019133 0)
(0.000175328 -0.00114382 0)
(0.000195755 -2.35547e-05 0)
(0.000164386 0.00121891 0)
(8.80273e-05 0.00230959 0)
(-6.29082e-06 0.00305728 0)
(-0.000105706 0.00336304 0)
(-0.000202843 0.0032623 0)
(-0.000283105 0.00273398 0)
(-0.000333113 0.0018634 0)
(-0.000345195 0.000674238 0)
(-0.000308164 -0.000595801 0)
(-0.000245986 -0.0016563 0)
(-0.000170873 -0.00234603 0)
(-9.23838e-05 -0.00253808 0)
(-4.23941e-05 -0.00212969 0)
(-8.87156e-06 -0.000966187 0)
(5.06213e-07 -0.00097022 0)
(-1.20287e-05 -0.00199379 0)
(-4.1584e-05 -0.00223674 0)
(-6.24237e-05 -0.00192604 0)
(-8.36703e-05 -0.00114462 0)
(-0.000100081 -1.87675e-05 0)
(-0.000103891 0.00125758 0)
(-0.000124516 0.00236384 0)
(-0.000140627 0.00310972 0)
(-0.000152273 0.00341834 0)
(-0.000170111 0.00331502 0)
(-0.000180519 0.00276146 0)
(-0.000142293 0.00184932 0)
(-8.10038e-05 0.000648082 0)
(-3.93573e-05 -0.000642739 0)
(4.00746e-06 -0.00170469 0)
(3.05085e-05 -0.00239332 0)
(3.08219e-05 -0.00257206 0)
(2.00377e-05 -0.0021426 0)
(3.61042e-06 -0.000975075 0)
(-5.49545e-06 -0.000946465 0)
(-8.25842e-05 -0.00193407 0)
(-0.000188965 -0.00217347 0)
(-0.000280969 -0.00187969 0)
(-0.000349065 -0.00110241 0)
(-0.000379902 -1.41537e-05 0)
(-0.00037508 0.00125716 0)
(-0.000332463 0.00234171 0)
(-0.000263991 0.00307959 0)
(-0.000194449 0.00339155 0)
(-0.000115015 0.00327917 0)
(-2.03155e-05 0.0027113 0)
(7.22599e-05 0.00177415 0)
(0.000159098 0.000583713 0)
(0.0002282 -0.000687257 0)
(0.000259109 -0.00173052 0)
(0.000236597 -0.00237275 0)
(0.00016235 -0.00252908 0)
(7.41256e-05 -0.00209616 0)
(7.59924e-06 -0.000949859 0)
(-1.40978e-05 -0.000888904 0)
(-0.000139181 -0.0018044 0)
(-0.000311358 -0.00204057 0)
(-0.000477735 -0.00176522 0)
(-0.000592159 -0.00104113 0)
(-0.000632203 -6.06741e-06 0)
(-0.000596342 0.00121256 0)
(-0.000509709 0.0022607 0)
(-0.000387508 0.00297314 0)
(-0.000225132 0.00326931 0)
(-4.73229e-05 0.00314784 0)
(0.000117952 0.00258485 0)
(0.000282483 0.00164582 0)
(0.000444064 0.000472932 0)
(0.000530704 -0.000726641 0)
(0.000512685 -0.0017073 0)
(0.00042074 -0.00229004 0)
(0.0002822 -0.00241194 0)
(0.00012734 -0.00198403 0)
(1.24104e-05 -0.000896758 0)
(-1.89496e-05 -0.000804586 0)
(-0.000177993 -0.00162684 0)
(-0.000400204 -0.00184109 0)
(-0.000619477 -0.00159504 0)
(-0.000778448 -0.0009498 0)
(-0.000848103 4.89557e-06 0)
(-0.000805652 0.00112554 0)
(-0.000671321 0.00213382 0)
(-0.000476807 0.00278822 0)
(-0.00023033 0.0030497 0)
(4.06679e-05 0.00292377 0)
(0.000301331 0.00238444 0)
(0.000524081 0.00146225 0)
(0.000691159 0.000338672 0)
(0.000763052 -0.000748254 0)
(0.00071359 -0.0016257 0)
(0.000568644 -0.00214608 0)
(0.000371696 -0.00223433 0)
(0.000167567 -0.00181846 0)
(1.77741e-05 -0.000819252 0)
(-2.15999e-05 -0.00070243 0)
(-0.000205493 -0.00141352 0)
(-0.000459061 -0.00159865 0)
(-0.000708169 -0.00138767 0)
(-0.000901525 -0.000818639 0)
(-0.00100149 3.5685e-05 0)
(-0.000964379 0.00101801 0)
(-0.000787004 0.00193898 0)
(-0.000525843 0.00253364 0)
(-0.000226114 0.00276064 0)
(9.94348e-05 0.00261969 0)
(0.00042786 0.00210497 0)
(0.00070601 0.0012484 0)
(0.000878429 0.00022269 0)
(0.000919969 -0.000743785 0)
(0.000837889 -0.00150691 0)
(0.000657893 -0.0019537 0)
(0.000423437 -0.00201182 0)
(0.000188779 -0.00161938 0)
(1.9565e-05 -0.000725357 0)
(-2.15011e-05 -0.000591955 0)
(-0.000211829 -0.00117942 0)
(-0.000478113 -0.00133465 0)
(-0.000747814 -0.00115295 0)
(-0.000964393 -0.000658897 0)
(-0.00107654 7.77686e-05 0)
(-0.00104825 0.000910294 0)
(-0.000864131 0.00169467 0)
(-0.000562112 0.00222395 0)
(-0.000206166 0.00241874 0)
(0.000169366 0.00226501 0)
(0.000530154 0.00177939 0)
(0.00082039 0.00101548 0)
(0.000984792 0.000125863 0)
(0.00100503 -0.000709895 0)
(0.000896686 -0.00136009 0)
(0.000692973 -0.00173205 0)
(0.000439531 -0.00176422 0)
(0.000192906 -0.0014042 0)
(1.8725e-05 -0.000625561 0)
(-1.90855e-05 -0.000483699 0)
(-0.000201449 -0.000944718 0)
(-0.000463373 -0.00106378 0)
(-0.000734454 -0.000904562 0)
(-0.000953438 -0.000488949 0)
(-0.00106541 0.000119935 0)
(-0.00103417 0.000806402 0)
(-0.000851321 0.00144062 0)
(-0.000544345 0.00188059 0)
(-0.000167647 0.00203632 0)
(0.000226675 0.00188413 0)
(0.000590025 0.00144704 0)
(0.000866997 0.000791542 0)
(0.0010124 4.4218e-05 0)
(0.00101416 -0.000655049 0)
(0.000891242 -0.00119517 0)
(0.000679615 -0.00149809 0)
(0.000424639 -0.0015102 0)
(0.000182867 -0.00118909 0)
(1.58574e-05 -0.000528978 0)
(-1.47485e-05 -0.000386757 0)
(-0.000178192 -0.000726196 0)
(-0.000418635 -0.000805428 0)
(-0.000670239 -0.000666336 0)
(-0.000872644 -0.000328274 0)
(-0.000973603 0.000157159 0)
(-0.000938417 0.000700038 0)
(-0.000761613 0.00119671 0)
(-0.000468093 0.00153836 0)
(-0.000104859 0.00165095 0)
(0.000273464 0.00150881 0)
(0.000612371 0.00113439 0)
(0.00086029 0.000591166 0)
(0.00098157 -1.86959e-05 0)
(0.000967573 -0.000585921 0)
(0.000838585 -0.00102431 0)
(0.000630414 -0.0012661 0)
(0.000386581 -0.00126503 0)
(0.000162045 -0.000987096 0)
(1.09629e-05 -0.000442642 0)
(-7.85279e-06 -0.000304234 0)
(-0.0001467 -0.000531703 0)
(-0.000353222 -0.000572283 0)
(-0.000571222 -0.000454748 0)
(-0.000744259 -0.000193417 0)
(-0.000825439 0.000182937 0)
(-0.000783187 0.000596703 0)
(-0.000616082 0.000970295 0)
(-0.000348881 0.00122213 0)
(-2.10731e-05 0.00129454 0)
(0.000317944 0.00116736 0)
(0.000615535 0.000860451 0)
(0.000825186 0.00042436 0)
(0.000918334 -5.9131e-05 0)
(0.000889583 -0.000507225 0)
(0.000761057 -0.000856451 0)
(0.000563367 -0.00104568 0)
(0.0003376 -0.00103929 0)
(0.000136189 -0.000805589 0)
(4.35046e-06 -0.000370415 0)
(-1.0203e-05 -0.000206626 0)
(-0.000113099 -0.000329063 0)
(-0.00028225 -0.000325306 0)
(-0.000465512 -0.00021194 0)
(-0.000599981 -1.19585e-05 0)
(-0.000650362 0.00023852 0)
(-0.000599461 0.000509733 0)
(-0.000442848 0.000765653 0)
(-0.000207999 0.000939348 0)
(7.29221e-05 0.000978151 0)
(0.000365725 0.000867828 0)
(0.000619627 0.000634995 0)
(0.000789144 0.00030449 0)
(0.000853081 -7.05315e-05 0)
(0.000806623 -0.000421635 0)
(0.000678492 -0.00069881 0)
(0.000492209 -0.00084456 0)
(0.000284255 -0.000841152 0)
(0.000106386 -0.000650071 0)
(-2.79918e-06 -0.000311431 0)
(1.39948e-05 -0.000300555 0)
(-7.15493e-05 -0.000400765 0)
(-0.000192911 -0.000376599 0)
(-0.000346578 -0.000289437 0)
(-0.000488409 -0.000133111 0)
(-0.000542488 6.52019e-05 0)
(-0.000466412 0.000280041 0)
(-0.000293431 0.000490584 0)
(-7.87219e-05 0.000630402 0)
(0.000160676 0.000655914 0)
(0.000420403 0.000550396 0)
(0.00064158 0.000378236 0)
(0.000762275 0.000129461 0)
(0.000784977 -0.00012715 0)
(0.000719052 -0.000356921 0)
(0.000594936 -0.000564903 0)
(0.000418912 -0.000676205 0)
(0.000229287 -0.000701539 0)
(8.11386e-05 -0.000575753 0)
(-1.8931e-05 -0.000330529 0)
(-2.40552e-05 5.15118e-05 0)
(-7.93393e-05 0.000143053 0)
(-0.000170504 0.000213453 0)
(-0.000277973 0.000295859 0)
(-0.000348764 0.000346407 0)
(-0.000342961 0.000443087 0)
(-0.000257728 0.00055051 0)
(-0.000109712 0.000646423 0)
(4.74802e-05 0.000683069 0)
(0.000210619 0.000686297 0)
(0.000432794 0.000637942 0)
(0.000634886 0.000531396 0)
(0.000749068 0.00027104 0)
(0.000790938 7.83307e-05 0)
(0.000693777 -4.64125e-05 0)
(0.00052847 -0.000229612 0)
(0.000318905 -0.000295076 0)
(0.00012503 -0.000332568 0)
(2.12515e-05 -0.000252268 0)
(-2.26421e-05 -0.000146641 0)
(5.85646e-05 -0.000510397 0)
(-2.26631e-05 -0.000591495 0)
(-0.000131396 -0.000431178 0)
(-0.000265123 -0.000347792 0)
(-0.000409865 -0.000514612 0)
(-0.000378813 -0.000387642 0)
(-0.000317316 -0.000166066 0)
(-0.000189522 -0.00020337 0)
(1.35437e-05 -0.000428738 0)
(0.000250703 -0.000359439 0)
(0.000507549 -8.58618e-05 0)
(0.000577965 -1.51249e-05 0)
(0.000641122 -0.000440922 0)
(0.000767846 -0.000493682 0)
(0.000646626 -0.000291445 0)
(0.000450685 -0.000443634 0)
(0.000230015 -0.000581473 0)
(4.95716e-05 -0.000777446 0)
(-2.7515e-05 -0.000689666 0)
(-7.61906e-05 -0.000455527 0)
(-3.83133e-05 0.000370077 0)
(0.000122089 0.000860759 0)
(6.19651e-06 0.0011476 0)
(-0.000256201 0.00137654 0)
(-0.000293368 0.000497811 0)
(0.000156404 0.000756894 0)
(-3.35362e-06 0.00127534 0)
(-0.000372845 0.00145837 0)
(6.66496e-05 0.00021247 0)
(0.000709981 0.000288172 0)
(0.00109817 0.00137902 0)
(0.000568111 0.00135406 0)
(0.000628829 3.05335e-05 0)
(0.00116754 2.78996e-05 0)
(0.000934166 0.00118046 0)
(0.000278151 0.000878236 0)
(-0.000218713 0.000487193 0)
(-0.000180027 1.81006e-07 0)
(-2.332e-05 0.000108036 0)
(1.83532e-05 4.0025e-05 0)
(0.000462907 -0.0015214 0)
(0.000832719 -0.00186933 0)
(0.000570749 -0.0005744 0)
(-0.000184331 -0.000373423 0)
(-0.00011953 -0.00279002 0)
(0.00130728 -0.00243476 0)
(0.00129134 0.000591006 0)
(-0.000827179 0.00033085 0)
(-5.74375e-05 -0.00411747 0)
(0.00214064 -0.00374149 0)
(0.00273563 0.000764982 0)
(-0.000132245 0.00112413 0)
(0.000161139 -0.0035783 0)
(0.00218297 -0.00257378 0)
(0.00186121 0.00130709 0)
(-0.00024656 0.00101747 0)
(-0.00106913 -0.0011662 0)
(-0.000430458 -0.00210049 0)
(-0.000155269 -0.00118215 0)
(-0.000194936 -0.000897276 0)
(0.00104314 0.000628851 0)
(0.00200581 0.0019569 0)
(0.00272152 0.00319071 0)
(-0.00153099 0.00505918 0)
(-0.000298957 -0.00017567 0)
(0.00515572 0.000709712 0)
(0.00505342 0.00525962 0)
(-0.00340771 0.0057486 0)
(-0.00190022 -0.00179906 0)
(0.00828729 -0.00150219 0)
(0.00863561 0.00618815 0)
(-0.00194639 0.00572627 0)
(-0.00192833 -0.00164636 0)
(0.00647405 -0.00101224 0)
(0.00591259 0.00579568 0)
(-0.00165575 0.00448441 0)
(-0.00286255 0.00106396 0)
(-0.000174351 0.0002768 0)
(0.00112728 0.00205347 0)
(-0.000475977 0.000725565 0)
(0.0013779 -0.00424272 0)
(-0.000509673 -0.00607333 0)
(0.00326967 0.00101833 0)
(-0.00366707 0.00232745 0)
(-0.00238156 -0.0102919 0)
(0.00349999 -0.0114906 0)
(0.00435241 0.00669652 0)
(-0.000110434 0.00721695 0)
(-0.00216339 -0.0173634 0)
(0.0105448 -0.0168152 0)
(0.00759216 0.00999836 0)
(-0.000407773 0.00919251 0)
(-0.00318968 -0.0152175 0)
(0.00703028 -0.0109594 0)
(0.00765166 0.0091659 0)
(-3.21219e-05 0.00717547 0)
(0.0016638 -0.00586602 0)
(0.00172075 -0.00631892 0)
(0.00287248 -0.000558736 0)
(-0.00107761 -0.00148017 0)
(0.00185989 -0.00381329 0)
(-0.00258811 -0.00485764 0)
(-0.00172803 0.0124789 0)
(-0.00144201 0.0170718 0)
(0.00207193 -0.0242848 0)
(0.000412822 -0.0225516 0)
(-0.00126778 0.0290977 0)
(0.0038926 0.0305719 0)
(0.00380874 -0.0415835 0)
(0.00245059 -0.0415165 0)
(0.000382026 0.0452072 0)
(0.00473214 0.0393544 0)
(0.000951806 -0.0359811 0)
(0.000743813 -0.0347174 0)
(0.00410197 0.032423 0)
(0.00533261 0.0238534 0)
(0.00593487 -0.0121971 0)
(0.00274581 -0.00861768 0)
(0.00196505 0.00590731 0)
(-0.00143369 0.00198139 0)
(-0.000622745 -0.00211125 0)
(-0.00253262 0.000460011 0)
(-0.00203098 0.00579761 0)
(0.000988785 0.00434598 0)
(0.00164895 -0.0125388 0)
(-0.00165207 -0.0054383 0)
(0.000208898 0.00664238 0)
(0.00556441 0.00511238 0)
(0.00488369 -0.0128954 0)
(-0.000921626 -0.0115254 0)
(-0.00106225 0.0140309 0)
(0.00575901 0.014558 0)
(0.00614987 -0.00770512 0)
(0.000483693 -0.0153743 0)
(0.00116897 0.00943813 0)
(0.00171809 0.0155611 0)
(-0.000575095 -0.00271791 0)
(-0.000622046 -0.000715532 0)
(7.21896e-05 0.00551327 0)
(-0.00019307 0.00200801 0)
(-0.000760144 -0.00125755 0)
(-0.0010834 -0.000179458 0)
(0.000441 0.00290432 0)
(0.00257257 0.000679056 0)
(0.00122236 -0.00918631 0)
(-0.00105532 -0.00550928 0)
(0.000634431 0.00282492 0)
(0.00388686 0.00310566 0)
(0.00326012 -0.0106801 0)
(-0.000730559 -0.00823418 0)
(-0.000244203 0.0092821 0)
(0.00443895 0.00897677 0)
(0.00573188 -0.00653326 0)
(0.00107345 -0.00956435 0)
(-0.00232058 0.00651543 0)
(0.00176303 0.0140724 0)
(0.00339205 -0.00188931 0)
(-0.000150727 -0.000864108 0)
(-0.000867233 0.0033361 0)
(-0.000295968 0.00181074 0)
(-0.000266192 -0.00027853 0)
(-0.000388843 -4.13847e-05 0)
(0.000807664 0.000113352 0)
(0.00256763 -0.0014108 0)
(0.00166586 -0.00438584 0)
(-0.000456566 -0.00341127 0)
(0.00052351 -0.00213641 0)
(0.00337312 -0.0020184 0)
(0.00271235 -0.00419975 0)
(-0.00105627 -0.00278509 0)
(-0.000448058 0.00157395 0)
(0.00389921 0.00206464 0)
(0.00427572 -0.000758395 0)
(-0.000209332 -0.00170147 0)
(-0.00216596 0.0034578 0)
(0.00111996 0.00704915 0)
(0.0022113 0.00242271 0)
(-0.000117345 0.00169076 0)
(-0.000818196 0.00233491 0)
(-0.000240527 0.000950487 0)
(-3.52714e-05 -0.000184103 0)
(0.000114113 -0.000416448 0)
(0.000809384 -0.000655153 0)
(0.00163285 -0.00182147 0)
(0.00142238 -0.00355646 0)
(0.000763005 -0.00335982 0)
(0.00102763 -0.00234191 0)
(0.00175096 -0.00231019 0)
(0.00140082 -0.00338123 0)
(0.000192384 -0.0022412 0)
(0.000377599 0.000780962 0)
(0.00167543 0.00144173 0)
(0.00165789 8.61114e-05 0)
(-0.000178161 0.000360975 0)
(-0.00114541 0.00353699 0)
(9.74897e-05 0.00520418 0)
(0.000646221 0.00333024 0)
(-0.000148138 0.00250064 0)
(-0.000381299 0.00219585 0)
(-7.75965e-05 0.00087964 0)
(2.34797e-07 -0.000260553 0)
(0.00020488 -0.000813824 0)
(0.000646138 -0.00138257 0)
(0.00110192 -0.00219795 0)
(0.00112388 -0.00306196 0)
(0.000931852 -0.00316055 0)
(0.000982138 -0.00284706 0)
(0.00111093 -0.00259625 0)
(0.000853703 -0.0024309 0)
(0.000326744 -0.00150811 0)
(0.000287795 -7.38503e-06 0)
(0.000608636 0.00082059 0)
(0.000434247 0.00105622 0)
(-0.000399764 0.00170396 0)
(-0.000852176 0.00329362 0)
(-0.000348719 0.004174 0)
(-1.56416e-05 0.00355865 0)
(-0.000207045 0.00288589 0)
(-0.000220611 0.00208666 0)
(-2.07124e-05 0.00071608 0)
(1.3771e-05 -0.000354855 0)
(0.00017185 -0.00109102 0)
(0.000441983 -0.00176854 0)
(0.000707887 -0.00243914 0)
(0.00078882 -0.0029828 0)
(0.000748116 -0.00310065 0)
(0.000734644 -0.00290411 0)
(0.00069918 -0.00254603 0)
(0.000502019 -0.00204689 0)
(0.00020719 -0.00118751 0)
(8.13038e-05 -8.45524e-05 0)
(7.59474e-05 0.000805283 0)
(-0.000108296 0.00147979 0)
(-0.000512658 0.00224438 0)
(-0.000715342 0.00323186 0)
(-0.000493613 0.00378043 0)
(-0.000278815 0.0035092 0)
(-0.000239556 0.00289294 0)
(-0.000151269 0.00194639 0)
(6.97276e-08 0.000626135 0)
(1.05366e-05 -0.000418757 0)
(0.000104613 -0.00125785 0)
(0.000250972 -0.00197977 0)
(0.000392019 -0.0025803 0)
(0.000457325 -0.00298866 0)
(0.000459299 -0.00307771 0)
(0.000436372 -0.00287663 0)
(0.000373837 -0.00244658 0)
(0.000240231 -0.00182237 0)
(6.84564e-05 -0.000975907 0)
(-6.49123e-05 1.65776e-06 0)
(-0.000167298 0.000913439 0)
(-0.000317521 0.00171644 0)
(-0.0005166 0.00248295 0)
(-0.000607365 0.00320851 0)
(-0.000506701 0.00357677 0)
(-0.000364001 0.00339038 0)
(-0.000256581 0.00278648 0)
(-0.000133601 0.00180143 0)
(-4.32278e-06 0.000546288 0)
(3.56252e-06 -0.000452776 0)
(3.45343e-05 -0.0013448 0)
(8.08602e-05 -0.00208513 0)
(0.00012524 -0.00265684 0)
(0.000148716 -0.00300833 0)
(0.00015186 -0.00307045 0)
(0.000140947 -0.00284977 0)
(0.000111655 -0.00237639 0)
(5.66598e-05 -0.00168867 0)
(-1.65386e-05 -0.000828521 0)
(-0.000130252 0.000144733 0)
(-0.000251442 0.00105988 0)
(-0.000378598 0.00188789 0)
(-0.000496216 0.00261764 0)
(-0.000545066 0.00320472 0)
(-0.000495812 0.0034636 0)
(-0.000396976 0.00326398 0)
(-0.000282251 0.00264349 0)
(-0.000151806 0.00164944 0)
(-2.71423e-05 0.000460366 0)
)
;

boundaryField
{
    top
    {
        type            pressureInletOutletVelocity;
        value           nonuniform List<vector> 
20
(
(0 -0.000452776 0)
(0 -0.0013448 0)
(0 -0.00208513 0)
(0 -0.00265684 0)
(0 -0.00300833 0)
(0 -0.00307045 0)
(0 -0.00284977 0)
(0 -0.00237639 0)
(0 -0.00168867 0)
(0 -0.000828521 0)
(-0.000130252 0.000144733 0)
(-0.000251442 0.00105988 0)
(-0.000378598 0.00188789 0)
(-0.000496216 0.00261764 0)
(-0.000545066 0.00320472 0)
(-0.000495812 0.0034636 0)
(-0.000396976 0.00326398 0)
(-0.000282251 0.00264349 0)
(-0.000151806 0.00164944 0)
(-2.71423e-05 0.000460366 0)
)
;
    }
    left
    {
        type            noSlip;
    }
    right
    {
        type            noSlip;
    }
    bottom
    {
        type            noSlip;
    }
    front
    {
        type            empty;
    }
    back
    {
        type            empty;
    }
    frontAndBack
    {
        type            empty;
    }
}


// ************************************************************************* //
