/*--------------------------------*- C++ -*----------------------------------*\
  =========                 |
  \\      /  F ield         | OpenFOAM: The Open Source CFD Toolbox
   \\    /   O peration     | Website:  https://openfoam.org
    \\  /    A nd           | Version:  10
     \\/     M anipulation  |
\*---------------------------------------------------------------------------*/
FoamFile
{
    format      ascii;
    class       surfaceScalarField;
    location    "0.05";
    object      alphaPhi.water;
}
// * * * * * * * * * * * * * * * * * * * * * * * * * * * * * * * * * * * * * //

dimensions      [0 3 -1 0 0 0 0];

internalField   nonuniform List<scalar> 
1540
(
7.71651e-14
-7.69908e-14
3.63011e-13
-2.85649e-13
7.82911e-13
-4.19696e-13
1.19465e-12
-4.11531e-13
1.47617e-12
-2.81311e-13
1.5543e-12
-7.79204e-14
1.39163e-12
1.62875e-13
1.03095e-12
3.60884e-13
5.08232e-13
5.22924e-13
-9.01602e-14
5.98597e-13
-6.73656e-13
5.83701e-13
-1.17758e-12
5.04126e-13
-1.51666e-12
3.39291e-13
-1.66458e-12
1.4813e-13
-1.56872e-12
-9.56539e-14
-1.25634e-12
-3.12174e-13
-8.07273e-13
-4.4887e-13
-3.88049e-13
-4.18994e-13
-7.75809e-14
-3.10242e-13
-7.74661e-14
3.06192e-13
-3.82986e-13
1.04943e-12
-1.02867e-12
1.99253e-12
-1.36256e-12
2.8668e-12
-1.28557e-12
3.4518e-12
-8.66081e-13
3.604e-12
-2.29882e-13
3.20359e-12
5.635e-13
2.35714e-12
1.20756e-12
1.16051e-12
1.7198e-12
-1.92352e-13
1.95168e-12
-1.53654e-12
1.92812e-12
-2.69722e-12
1.66503e-12
-3.51887e-12
1.16117e-12
-3.84608e-12
4.75578e-13
-3.6465e-12
-2.95009e-13
-3.01979e-12
-9.38673e-13
-2.09314e-12
-1.37529e-12
-1.09195e-12
-1.41995e-12
-3.12452e-13
-1.0895e-12
-3.89803e-13
4.82061e-13
-8.64844e-13
1.5834e-12
-2.12978e-12
2.86953e-12
-2.64845e-12
4.02792e-12
-2.44373e-12
4.76991e-12
-1.60784e-12
4.88195e-12
-3.41676e-13
4.41098e-12
1.03471e-12
3.238e-12
2.38077e-12
1.62631e-12
3.33172e-12
-2.40871e-13
3.81911e-12
-2.10157e-12
3.78905e-12
-3.68987e-12
3.25358e-12
-4.79898e-12
2.27052e-12
-5.25849e-12
9.35308e-13
-5.04569e-12
-5.07565e-13
-4.21e-12
-1.77413e-12
-2.97597e-12
-2.60909e-12
-1.6148e-12
-2.78088e-12
-4.98544e-13
-2.20551e-12
-8.88233e-13
6.37632e-13
-1.50225e-12
1.96627e-12
-3.45817e-12
3.48362e-12
-4.16557e-12
4.84998e-12
-3.80986e-12
5.70641e-12
-2.46404e-12
5.83653e-12
-4.71551e-13
5.13947e-12
1.732e-12
3.78453e-12
3.73595e-12
1.89013e-12
5.22636e-12
-2.9019e-13
5.99967e-12
-2.46128e-12
5.96037e-12
-4.32284e-12
5.11538e-12
-5.62563e-12
3.57354e-12
-6.22829e-12
1.5382e-12
-6.0318e-12
-7.03826e-13
-5.07623e-12
-2.72946e-12
-3.61308e-12
-4.07201e-12
-1.98254e-12
-4.41117e-12
-6.24711e-13
-3.56312e-12
-1.51283e-12
7.02523e-13
-2.20459e-12
2.14229e-12
-4.89773e-12
3.87597e-12
-5.899e-12
5.39504e-12
-5.3287e-12
6.33252e-12
-3.40128e-12
6.44148e-12
-5.80271e-13
5.65566e-12
2.51804e-12
4.1271e-12
5.26473e-12
2.04786e-12
7.30583e-12
-3.30622e-13
8.37839e-12
-2.69643e-12
8.32642e-12
-4.73362e-12
7.15281e-12
-6.18754e-12
5.0277e-12
-6.8746e-12
2.22543e-12
-6.67278e-12
-9.05383e-13
-5.66294e-12
-3.73906e-12
-4.05574e-12
-5.67896e-12
-2.23459e-12
-6.23208e-12
-7.04354e-13
-5.09314e-12
-2.21707e-12
7.12402e-13
-2.91678e-12
2.2725e-12
-6.45763e-12
4.13858e-12
-7.7649e-12
5.70451e-12
-6.8944e-12
6.61327e-12
-4.3098e-12
6.7158e-12
-6.82557e-13
5.91704e-12
3.31703e-12
4.29674e-12
6.88526e-12
2.12581e-12
9.47699e-12
-3.6114e-13
1.08656e-11
-2.82736e-12
1.07929e-11
-4.95822e-12
9.2839e-12
-6.47831e-12
6.54802e-12
-7.24991e-12
2.99725e-12
-7.06806e-12
-1.087e-12
-6.01192e-12
-4.79497e-12
-4.32778e-12
-7.36287e-12
-2.40488e-12
-8.15476e-12
-7.67279e-13
-6.73051e-12
-2.98424e-12
7.67881e-13
-3.68447e-12
2.38293e-12
-8.07246e-12
4.22835e-12
-9.61006e-12
5.78986e-12
-8.45568e-12
6.70159e-12
-5.2213e-12
6.73835e-12
-7.19082e-13
5.91223e-12
4.14337e-12
4.31159e-12
8.48613e-12
2.11936e-12
1.16695e-11
-3.87127e-13
1.33723e-11
-2.86433e-12
1.32704e-11
-4.97396e-12
1.13938e-11
-6.56457e-12
8.1388e-12
-7.2587e-12
3.6916e-12
-7.11684e-12
-1.22863e-12
-6.06871e-12
-5.84286e-12
-4.39075e-12
-9.04059e-12
-2.45535e-12
-1.00899e-11
-7.88632e-13
-8.39701e-12
-3.77276e-12
7.27665e-13
-4.41195e-12
2.32094e-12
-9.66551e-12
4.08179e-12
-1.13707e-11
5.54894e-12
-9.9226e-12
6.37891e-12
-6.05103e-12
6.39962e-12
-7.39576e-13
5.57586e-12
4.96735e-12
4.05745e-12
1.00047e-11
1.95454e-12
1.37727e-11
-3.88755e-13
1.57158e-11
-2.7444e-12
1.56262e-11
-4.8777e-12
1.35273e-11
-6.30509e-12
9.5664e-12
-7.01661e-12
4.40333e-12
-6.756e-12
-1.48899e-12
-5.78171e-12
-6.81692e-12
-4.20408e-12
-1.0618e-11
-2.36349e-12
-1.19303e-11
-7.6084e-13
-9.99946e-12
-4.5335e-12
7.0033e-13
-5.11205e-12
2.06176e-12
-1.10267e-11
3.63067e-12
-1.29394e-11
4.9437e-12
-1.12354e-11
5.6999e-12
-6.80703e-12
5.71374e-12
-7.53226e-13
5.03214e-12
5.64916e-12
3.61312e-12
1.14239e-11
1.73123e-12
1.56547e-11
-3.79281e-13
1.78266e-11
-2.45505e-12
1.77022e-11
-4.25324e-12
1.53257e-11
-5.55485e-12
1.08682e-11
-6.11248e-12
4.96117e-12
-5.95043e-12
-1.65084e-12
-5.11551e-12
-7.65162e-12
-3.73709e-12
-1.19962e-11
-2.09958e-12
-1.35676e-11
-6.67749e-13
-1.14311e-11
-5.20114e-12
5.28839e-13
-5.64069e-12
1.5758e-12
-1.20734e-11
2.78663e-12
-1.41501e-11
3.82473e-12
-1.22734e-11
4.50842e-12
-7.49053e-12
4.61902e-12
-8.63633e-13
4.03389e-12
6.23451e-12
2.85078e-12
1.26073e-11
1.30649e-12
1.71992e-11
-4.26174e-13
1.95594e-11
-2.14718e-12
1.94234e-11
-3.592e-12
1.67707e-11
-4.6511e-12
1.19275e-11
-5.03617e-12
5.34646e-12
-4.85122e-12
-1.83563e-12
-4.04499e-12
-8.45766e-12
-2.9807e-12
-1.30603e-11
-1.68332e-12
-1.48648e-11
-5.36526e-13
-1.25777e-11
-5.73756e-12
3.05991e-13
-5.94652e-12
9.28254e-13
-1.26955e-11
1.67204e-12
-1.48937e-11
2.4547e-12
-1.30558e-11
3.03871e-12
-8.07435e-12
3.17923e-12
-1.00395e-12
2.78824e-12
6.62571e-12
1.9503e-12
1.34454e-11
7.97369e-13
1.83523e-11
-4.73799e-13
2.08308e-11
-1.73108e-12
2.06809e-11
-2.80477e-12
1.78446e-11
-3.51026e-12
1.26332e-11
-3.73533e-12
5.57173e-12
-3.41168e-12
-2.15909e-12
-2.78187e-12
-9.08728e-12
-1.90006e-12
-1.39419e-11
-1.08492e-12
-1.56797e-11
-4.40158e-13
-1.32222e-11
-6.17761e-12
1.16512e-13
-6.06287e-12
3.46415e-13
-1.29253e-11
6.34987e-13
-1.5182e-11
9.89573e-13
-1.34102e-11
1.28418e-12
-8.36877e-12
1.39648e-12
-1.11606e-12
1.24459e-12
6.77784e-12
7.89342e-13
1.39009e-11
1.58968e-13
1.89829e-11
-5.17554e-13
2.15075e-11
-1.16435e-12
2.13279e-11
-1.71117e-12
1.83916e-11
-1.99791e-12
1.29202e-11
-1.98997e-12
5.56403e-12
-1.6664e-12
-2.48247e-12
-1.19844e-12
-9.55503e-12
-7.99451e-13
-1.43407e-11
-3.60031e-13
-1.61189e-11
-7.39291e-14
-1.35081e-11
-6.25145e-12
-9.37885e-14
-5.96892e-12
-3.31002e-13
-1.26879e-11
-5.24237e-13
-1.49886e-11
-6.65641e-13
-1.32686e-11
-6.5306e-13
-8.38116e-12
-5.43668e-13
-1.22527e-12
-5.33634e-13
6.768e-12
-5.40193e-13
1.39076e-11
-5.72515e-13
1.90154e-11
-6.1365e-13
2.15488e-11
-5.89857e-13
2.13043e-11
-4.92996e-13
1.8295e-11
-2.80401e-13
1.27078e-11
-3.79061e-15
5.28761e-12
2.96226e-13
-2.7823e-12
4.66942e-13
-9.72556e-12
5.03638e-13
-1.43773e-11
2.67919e-13
-1.5883e-11
1.25086e-13
-1.33651e-11
-6.12627e-12
-3.28221e-13
-5.64054e-12
-9.94844e-13
-1.20211e-11
-1.81475e-12
-1.41685e-11
-2.42664e-12
-1.26566e-11
-2.7158e-12
-8.09181e-12
-2.58876e-12
-1.35213e-12
-2.36319e-12
6.54257e-12
-1.94961e-12
1.34943e-11
-1.38599e-12
1.8452e-11
-7.37846e-13
2.09008e-11
-4.62848e-14
2.06129e-11
6.51496e-13
1.75975e-11
1.28608e-12
1.20734e-11
1.82748e-12
4.74636e-12
2.15269e-12
-3.10732e-12
2.0561e-12
-9.62879e-12
1.55739e-12
-1.38784e-11
9.05251e-13
-1.52307e-11
3.08556e-13
-1.27682e-11
-5.81763e-12
-5.41271e-13
-5.09913e-12
-1.6413e-12
-1.09209e-11
-2.95092e-12
-1.28588e-11
-4.07232e-12
-1.1535e-11
-4.69329e-12
-7.47067e-12
-4.7494e-12
-1.29585e-12
-4.19492e-12
5.98822e-12
-3.29776e-12
1.25973e-11
-2.1296e-12
1.72841e-11
-8.81785e-13
1.96532e-11
4.20732e-13
1.93107e-11
1.71458e-12
1.63038e-11
2.81694e-12
1.09712e-11
3.6092e-12
3.95425e-12
3.79258e-12
-3.29051e-12
3.47208e-12
-9.30814e-12
2.63645e-12
-1.30426e-11
1.50911e-12
-1.41032e-11
4.62466e-13
-1.17214e-11
-5.35508e-12
-6.93628e-13
-4.40538e-12
-2.13208e-12
-9.48235e-12
-3.80979e-12
-1.11809e-11
-5.26237e-12
-1.00823e-11
-6.18659e-12
-6.54629e-12
-6.39348e-12
-1.0888e-12
-5.72886e-12
5.32373e-12
-4.42851e-12
1.12971e-11
-2.84305e-12
1.56989e-11
-1.03824e-12
1.78487e-11
8.33837e-13
1.74388e-11
2.58145e-12
1.45564e-11
4.05984e-12
9.49296e-12
4.97499e-12
3.03925e-12
5.05936e-12
-3.37471e-12
4.42406e-12
-8.67268e-12
3.3117e-12
-1.19301e-11
1.88986e-12
-1.26812e-11
6.08524e-13
-1.04399e-11
-4.74648e-12
-7.80237e-13
-3.62502e-12
-2.41687e-12
-7.8456e-12
-4.32118e-12
-9.27651e-12
-6.03292e-12
-8.37042e-12
-7.21148e-12
-5.3676e-12
-7.54429e-12
-7.55846e-13
-6.86569e-12
4.64529e-12
-5.39295e-12
9.82451e-12
-3.4467e-12
1.37527e-11
-1.19821e-12
1.56004e-11
1.10605e-12
1.51346e-11
3.22875e-12
1.24338e-11
4.91338e-12
7.80846e-12
5.78799e-12
2.1648e-12
5.78447e-12
-3.37105e-12
4.9816e-12
-7.86967e-12
3.63689e-12
-1.05852e-11
2.05997e-12
-1.11042e-11
6.70077e-13
-9.0499e-12
-4.07634e-12
-8.06644e-13
-2.81827e-12
-2.49725e-12
-6.15488e-12
-4.49401e-12
-7.27964e-12
-6.35433e-12
-6.50999e-12
-7.65276e-12
-4.06905e-12
-8.07721e-12
-3.31264e-13
-7.52832e-12
4.09655e-12
-6.05452e-12
8.35083e-12
-3.90207e-12
1.16004e-11
-1.40265e-12
1.31011e-11
1.14613e-12
1.2586e-11
3.44265e-12
1.01374e-11
5.13121e-12
6.12002e-12
5.95967e-12
1.33647e-12
5.89084e-12
-3.3021e-12
5.02443e-12
-7.00315e-12
3.62479e-12
-9.18547e-12
2.03298e-12
-9.51225e-12
6.48899e-13
-7.66571e-12
-3.42739e-12
-7.77171e-13
-2.04099e-12
-2.42073e-12
-4.5112e-12
-4.38203e-12
-5.31823e-12
-6.22801e-12
-4.6639e-12
-7.55712e-12
-2.73983e-12
-8.08265e-12
1.94384e-13
-7.64868e-12
3.6627e-12
-6.28526e-12
6.98753e-12
-4.17063e-12
9.48586e-12
-1.65633e-12
1.05869e-11
9.01784e-13
1.0028e-11
3.15509e-12
7.88421e-12
4.75967e-12
4.51554e-12
5.52643e-12
5.69816e-13
5.42894e-12
-3.20452e-12
4.60797e-12
-6.18208e-12
3.30932e-12
-7.88672e-12
1.84285e-12
-8.04569e-12
5.82075e-13
-6.40485e-12
-2.84528e-12
-7.15637e-13
-1.32526e-12
-2.24208e-12
-2.98466e-12
-4.07646e-12
-3.48375e-12
-5.81854e-12
-2.92172e-12
-7.11402e-12
-1.44425e-12
-7.68707e-12
7.67545e-13
-7.36919e-12
3.34493e-12
-6.17556e-12
5.794e-12
-4.26719e-12
7.57758e-12
-1.9517e-12
8.27148e-12
4.11117e-13
7.66525e-12
2.47259e-12
5.82283e-12
3.93323e-12
3.05499e-12
4.63359e-12
-1.30459e-13
4.56923e-12
-3.14008e-12
3.88145e-12
-5.49422e-12
2.78462e-12
-6.78981e-12
1.54389e-12
-6.80489e-12
4.81821e-13
-5.3427e-12
-2.36342e-12
-6.43274e-13
-6.81895e-13
-2.02217e-12
-1.60567e-12
-3.68518e-12
-1.82064e-12
-5.27828e-12
-1.32852e-12
-6.48154e-12
-2.40894e-13
-7.05475e-12
1.34084e-12
-6.84333e-12
3.1336e-12
-5.86028e-12
4.81104e-12
-4.24179e-12
5.95918e-12
-2.25561e-12
6.28538e-12
-2.14151e-13
5.62387e-12
1.57579e-12
4.03297e-12
2.85688e-12
1.77396e-12
3.50209e-12
-7.75595e-13
3.50894e-12
-3.14687e-12
3.00907e-12
-4.9943e-12
2.16305e-12
-5.94374e-12
1.19774e-12
-5.83952e-12
3.67447e-13
-4.51236e-12
-1.99595e-12
-5.75501e-13
-1.06305e-13
-1.81123e-12
-3.69836e-13
-3.29364e-12
-3.38137e-13
-4.71962e-12
9.75522e-14
-5.79486e-12
8.34441e-13
-6.33642e-12
1.8825e-12
-6.20376e-12
3.00103e-12
-5.43553e-12
4.04289e-12
-4.12714e-12
4.65086e-12
-2.51088e-12
4.66919e-12
-8.30228e-13
3.94328e-12
6.63768e-13
2.53904e-12
1.75728e-12
6.80505e-13
2.35757e-12
-1.37583e-12
2.44086e-12
-3.23011e-12
2.14052e-12
-4.69392e-12
1.54457e-12
-5.34775e-12
8.59256e-13
-5.15417e-12
2.58337e-13
-3.9114e-12
-1.7376e-12
-5.2202e-13
4.15802e-13
-1.64114e-12
7.4938e-13
-2.94882e-12
9.69644e-13
-4.20559e-12
1.35441e-12
-5.12202e-12
1.75097e-12
-5.60548e-12
2.36604e-12
-5.50786e-12
2.90349e-12
-4.92809e-12
3.46319e-12
-3.89499e-12
3.61784e-12
-2.63289e-12
3.40716e-12
-1.30144e-12
2.61189e-12
-8.72289e-14
1.32488e-12
8.27882e-13
-2.34558e-13
1.38642e-12
-1.93433e-12
1.51741e-12
-3.36107e-12
1.39944e-12
-4.57591e-12
1.00736e-12
-4.95564e-12
5.76051e-13
-4.72283e-12
1.69235e-13
-3.50455e-12
-1.56835e-12
-4.86728e-13
9.02619e-13
-1.51716e-12
1.77991e-12
-2.6664e-12
2.11898e-12
-3.74511e-12
2.43322e-12
-4.44495e-12
2.4509e-12
-4.83824e-12
2.75941e-12
-4.70936e-12
2.7747e-12
-4.28123e-12
3.03514e-12
-3.44666e-12
2.78335e-12
-2.49494e-12
2.4555e-12
-1.47702e-12
1.59403e-12
-5.21098e-13
3.6901e-13
2.22935e-13
-9.78548e-13
7.32993e-13
-2.44435e-12
8.68389e-13
-3.49643e-12
8.93904e-13
-4.6014e-12
6.33497e-13
-4.69521e-12
3.97332e-13
-4.48664e-12
1.24718e-13
-3.23192e-12
-1.44363e-12
-4.6944e-13
1.37215e-12
-1.4356e-12
2.74618e-12
-2.52798e-12
3.21146e-12
-3.30433e-12
3.20967e-12
-3.63636e-12
2.78303e-12
-3.90851e-12
3.03165e-12
-3.65428e-12
2.52055e-12
-3.36018e-12
2.74112e-12
-2.60077e-12
2.02402e-12
-1.89575e-12
1.75054e-12
-1.11618e-12
8.14514e-13
-5.65261e-13
-1.81854e-13
2.26802e-14
-1.56644e-12
4.88674e-13
-2.91031e-12
6.38918e-13
-3.64664e-12
7.11125e-13
-4.67358e-12
4.863e-13
-4.47036e-12
3.52015e-13
-4.35233e-12
1.41653e-13
-3.02153e-12
-1.30196e-12
-3.5376e-13
1.72601e-12
-1.33428e-12
3.72681e-12
-2.40871e-12
4.286e-12
-2.87657e-12
3.67764e-12
-2.50483e-12
2.41139e-12
-2.62914e-12
3.15606e-12
-2.15193e-12
2.04344e-12
-2.18304e-12
2.77231e-12
-1.28319e-12
1.12425e-12
-7.3211e-13
1.19953e-12
-1.62966e-13
2.45434e-13
5.39784e-14
-3.9874e-13
3.82186e-13
-1.8946e-12
9.18454e-13
-3.44653e-12
1.06295e-12
-3.79109e-12
9.60068e-13
-4.57067e-12
4.92742e-13
-4.003e-12
5.39418e-13
-4.39898e-12
2.82213e-13
-2.76429e-12
-1.01973e-12
2.22281e-13
1.50383e-12
-1.10723e-12
5.05643e-12
-2.81364e-12
5.99251e-12
-2.44456e-12
3.30866e-12
-7.41509e-13
7.08447e-13
-1.55222e-13
2.56986e-12
-4.49905e-13
2.33821e-12
-7.06872e-13
3.02936e-12
1.06394e-12
-6.46487e-13
2.25369e-12
9.84982e-15
1.87998e-12
6.19214e-13
8.83577e-13
5.97724e-13
7.56575e-13
-1.76754e-12
2.2573e-12
-4.94721e-12
2.59797e-12
-4.13172e-12
1.84892e-12
-3.82158e-12
2.81203e-13
-2.43524e-12
1.06157e-12
-5.17931e-12
1.13881e-12
-2.8415e-12
1.19103e-13
2.76142e-12
-1.2575e-12
-5.74557e-13
8.39249e-12
-5.24402e-12
1.06621e-11
-3.31769e-12
1.38228e-12
3.53071e-12
-6.13988e-12
4.37066e-12
1.72997e-12
1.02739e-12
5.68155e-12
-6.92042e-13
4.74885e-12
4.45077e-12
-5.78922e-12
7.51156e-12
-3.05088e-12
6.93436e-12
1.19646e-12
1.03592e-12
6.49621e-12
-3.52973e-13
-3.78599e-13
4.08609e-12
-9.38624e-12
9.5644e-12
-9.61011e-12
4.43038e-12
1.3126e-12
-2.46457e-12
4.45964e-12
1.74543e-12
-9.38929e-12
7.02981e-12
-8.12587e-12
7.14891e-12
1.55577e-11
-1.68145e-11
2.91563e-12
2.10348e-11
-1.49856e-11
2.85634e-11
-6.99791e-12
-6.602e-12
1.38434e-11
-2.69756e-11
1.41463e-11
1.42742e-12
-1.54191e-12
2.135e-11
-8.01299e-12
1.122e-11
6.58372e-12
-2.0382e-11
1.86393e-11
-1.51049e-11
1.52352e-11
4.60062e-12
-2.18015e-12
2.39075e-11
-1.30444e-11
1.04783e-11
4.9032e-12
-2.73256e-11
2.80983e-11
-3.27731e-11
9.50366e-12
1.98958e-11
-2.34581e-11
3.74037e-11
-1.3137e-12
-3.15236e-11
2.90769e-11
-3.85055e-11
3.62208e-11
4.64047e-11
-3.4207e-11
1.08234e-11
3.1881e-11
-4.01516e-11
4.44283e-11
-1.7086e-11
-1.59297e-11
4.53024e-11
-4.81145e-11
3.94647e-11
4.51235e-12
-1.55946e-11
4.24438e-11
-2.9823e-11
1.4132e-11
7.79413e-12
-3.12272e-11
3.27559e-11
-2.16081e-11
3.50948e-11
1.01736e-12
-4.50417e-12
3.50007e-11
-4.17735e-11
2.71372e-11
-3.58719e-12
-3.54439e-11
8.21126e-11
-6.58595e-11
3.04711e-11
4.05494e-11
-7.94713e-11
8.24115e-11
-9.55157e-12
-5.61471e-11
9.76621e-11
-8.24848e-11
7.51026e-11
6.77311e-12
-1.66637e-13
2.65474e-12
2.59336e-13
-4.13101e-12
5.88035e-13
-1.67929e-13
-1.38319e-13
6.79112e-12
-4.17329e-13
5.84312e-12
0
-7.20191e-13
5.12734e-13
-1.76696e-12
0
2.44089e-12
-6.43297e-14
6.97425e-12
-5.91896e-13
6.61836e-12
0
2.67377e-12
3.44106e-13
-2.8508e-12
2.62915e-13
3.2162e-12
-5.87649e-13
1.51996e-11
-1.02425e-12
8.42002e-12
3.5685e-13
-1.16494e-11
2.93001e-12
-8.13532e-13
-1.40099e-12
1.58934e-11
-2.78608e-12
2.24813e-12
-1.66843e-13
-1.65028e-15
-5.3833e-14
0
2.51797e-13
0
2.48021e-15
-4.70368e-15
-2.3154e-14
-5.77089e-15
-3.49354e-14
-4.47639e-15
1.64992e-13
0
6.52776e-14
0
7.96169e-16
-2.91191e-15
2.63986e-16
-9.67709e-15
1.04795e-15
-1.04176e-16
6.47202e-14
0
2.4013e-13
0
9.33709e-15
-1.47333e-14
-2.62643e-13
-1.38669e-14
-3.6199e-13
0
1.03958e-12
3.59519e-14
5.71298e-15
-3.24853e-14
-1.29595e-12
-4.45025e-14
0
-1.06282e-15
-1.26091e-17
-1.68379e-15
0
1.38766e-15
1.96382e-17
3.58425e-16
-7.971e-16
-1.22674e-15
-1.59643e-16
-1.6257e-15
-6.07652e-16
5.48945e-15
0
5.44351e-15
-3.04706e-16
1.97121e-16
-1.33155e-16
2.06817e-15
-1.6825e-15
-1.57455e-15
0
1.54554e-15
0
2.7213e-15
-4.89809e-16
5.21981e-16
-8.98605e-17
-2.04619e-15
-1.10203e-16
-2.37337e-15
1.13637e-16
2.89697e-14
0
1.57935e-16
-4.12021e-16
-1.77181e-14
-5.07e-16
0
-2.22356e-18
-1.18197e-20
7.46062e-19
0
1.87987e-17
3.39623e-21
1.63442e-17
-1.4471e-17
-3.75072e-18
-1.7207e-19
3.42278e-18
-1.93731e-17
2.49694e-17
-3.84578e-19
5.19387e-17
-1.30746e-17
3.98889e-18
-1.66628e-18
-1.55641e-17
-2.22024e-17
1.05528e-17
0
1.1141e-16
0
6.35206e-18
-4.76683e-19
-3.08133e-19
-3.28743e-19
-1.4455e-17
-1.76179e-18
9.74213e-18
0
3.18492e-16
0
7.63582e-19
-6.01002e-19
-5.77576e-17
-6.20217e-18
0
-2.46208e-21
-2.14317e-25
3.82498e-21
-3.64742e-29
7.22158e-21
-3.5943e-25
1.73408e-19
-6.43751e-27
1.33774e-21
-3.3558e-27
3.87745e-19
-4.93782e-27
3.17847e-21
-3.99547e-24
1.67759e-18
-1.41934e-22
5.5964e-21
-1.14824e-20
-2.69098e-19
-1.783e-19
-1.56204e-19
0
1.08583e-18
0
6.65133e-19
0
-4.46511e-19
-1.06592e-21
-5.40165e-19
2.57467e-21
-7.80033e-19
0
3.01331e-18
2.05151e-20
2.16893e-20
0
-5.43845e-19
0
0
9.51896e-28
-1.37952e-25
7.03824e-28
-9.67832e-28
1.98349e-27
-5.49615e-27
1.01912e-27
-5.3663e-27
5.37112e-28
-2.88331e-27
4.15177e-28
-4.70904e-27
4.23325e-27
-3.76492e-24
6.2344e-26
-1.33839e-22
-3.49991e-21
-6.11917e-23
-4.58843e-21
0
-3.25278e-21
0
7.50441e-22
0
-1.40939e-22
0
-2.18507e-22
3.05284e-24
-4.46991e-22
0
-6.49048e-21
0
1.38162e-21
0
-2.64437e-22
0
-6.09932e-22
0
0
8.89774e-26
-6.18829e-28
5.44715e-28
-8.60795e-28
1.91984e-27
-7.50097e-26
6.44132e-28
-8.32116e-26
1.9051e-28
-2.73926e-27
-1.38274e-29
-7.34079e-26
-9.2962e-24
-2.47731e-26
-1.00618e-23
-1.46239e-24
-4.77337e-23
-7.79669e-25
-4.27789e-23
0
-3.65955e-23
3.19392e-24
-8.31293e-23
7.75097e-24
-1.17702e-23
1.1531e-23
-6.88367e-24
3.28513e-24
-6.5588e-24
2.2615e-24
-5.84486e-23
1.2235e-24
-2.51001e-24
3.74471e-24
-2.37942e-24
4.60697e-25
-7.86177e-25
5.2498e-26
2.49514e-27
1.65324e-28
-1.75354e-29
1.22075e-28
-5.98496e-28
8.68137e-27
-7.31347e-28
2.66991e-27
-7.36726e-28
-2.77495e-27
-1.16601e-28
-1.98939e-27
-1.74806e-28
-4.77604e-25
-8.07996e-28
-1.14766e-24
-1.92035e-26
-4.39878e-25
-6.85538e-27
-9.61159e-25
2.09799e-25
-2.5481e-24
8.53e-25
-7.76118e-24
1.77703e-24
-4.12881e-24
1.95946e-24
-3.17182e-24
1.72944e-24
-9.32746e-25
1.21206e-24
-2.28577e-24
2.30715e-25
-2.79251e-25
2.61846e-25
-2.20697e-26
4.89527e-26
-8.3417e-28
6.84765e-27
1.39014e-28
9.64095e-31
-5.23398e-30
2.61941e-29
-1.90683e-29
1.89638e-29
-6.65774e-30
-1.03017e-30
-1.78292e-30
-6.62557e-30
-1.19535e-30
-2.75407e-29
-1.1063e-30
-6.95161e-28
-3.22019e-30
-2.41063e-26
-6.21537e-29
-1.10946e-25
3.70971e-28
-3.00988e-25
1.09538e-25
-5.7928e-25
2.18943e-25
-5.361e-25
2.4888e-25
-2.37235e-25
9.75963e-26
-6.05208e-26
1.95763e-26
-2.4978e-26
3.70395e-27
-5.19245e-26
3.11931e-27
-1.96929e-26
4.42761e-27
-3.71402e-27
3.39344e-27
-5.12114e-29
1.29982e-27
8.56745e-29
5.71534e-32
6.84297e-32
9.1352e-34
-6.11434e-33
-1.56862e-32
-3.1848e-32
-3.23489e-31
-5.74946e-29
-5.66577e-27
-1.76084e-26
-2.90251e-26
-1.8241e-26
-4.2709e-27
-1.57277e-27
-1.09145e-27
-8.85417e-28
-3.88195e-28
-1.06711e-28
-2.13379e-29
)
;

boundaryField
{
    top
    {
        type            calculated;
        value           nonuniform List<scalar> 
20
(
0
0
0
0
0
0
0
0
2.89572e-28
1.70169e-26
4.82762e-26
7.08927e-26
2.85021e-26
5.73154e-27
2.31771e-27
1.79258e-27
1.58966e-27
6.34556e-28
1.76053e-28
1.55469e-29
)
;
    }
    left
    {
        type            calculated;
        value           uniform 0;
    }
    right
    {
        type            calculated;
        value           uniform 0;
    }
    bottom
    {
        type            calculated;
        value           nonuniform List<scalar> 
20
(
0
0
0
0
0
0
0
0
0
0
0
0
0
0
-1.97214e-31
0
0
0
0
0
)
;
    }
    front
    {
        type            empty;
        value           nonuniform List<scalar> 0();
    }
    back
    {
        type            empty;
        value           nonuniform List<scalar> 0();
    }
    frontAndBack
    {
        type            empty;
        value           nonuniform List<scalar> 0();
    }
}


// ************************************************************************* //
