/*--------------------------------*- C++ -*----------------------------------*\
  =========                 |
  \\      /  F ield         | OpenFOAM: The Open Source CFD Toolbox
   \\    /   O peration     | Website:  https://openfoam.org
    \\  /    A nd           | Version:  10
     \\/     M anipulation  |
\*---------------------------------------------------------------------------*/
FoamFile
{
    format      ascii;
    class       volScalarField;
    location    "0.05";
    object      alpha.water;
}
// * * * * * * * * * * * * * * * * * * * * * * * * * * * * * * * * * * * * * //

dimensions      [0 0 0 0 0 0 0];

internalField   nonuniform List<scalar> 
800
(
0.999993
0.999992
0.999992
0.999991
0.999991
0.999991
0.999992
0.999992
0.999992
0.999992
0.999992
0.999992
0.999991
0.999991
0.999992
0.999992
0.999992
0.99999
0.999991
0.999995
0.999992
0.999992
0.99999
0.99999
0.99999
0.99999
0.999992
0.99999
0.99999
0.999991
0.999991
0.999991
0.99999
0.99999
0.999991
0.999992
0.99999
0.99999
0.99999
0.999995
0.999992
0.99999
0.99999
0.99999
0.99999
0.99999
0.99999
0.99999
0.99999
0.99999
0.99999
0.99999
0.99999
0.99999
0.999991
0.99999
0.99999
0.99999
0.99999
0.999996
0.999991
0.99999
0.99999
0.99999
0.99999
0.99999
0.999991
0.99999
0.99999
0.99999
0.99999
0.99999
0.99999
0.999991
0.999991
0.99999
0.99999
0.99999
0.999991
0.999996
0.999991
0.999991
0.99999
0.99999
0.99999
0.99999
0.999992
0.999991
0.99999
0.99999
0.99999
0.99999
0.99999
0.999993
0.999991
0.99999
0.99999
0.99999
0.999992
0.999996
0.999993
0.999993
0.999992
0.99999
0.99999
0.999991
0.999992
0.999992
0.99999
0.99999
0.99999
0.99999
0.99999
0.999993
0.999991
0.99999
0.99999
0.99999
0.999992
0.999996
0.999993
0.999993
0.99999
0.99999
0.99999
0.999992
0.999992
0.999992
0.99999
0.99999
0.99999
0.99999
0.999993
0.999993
0.999993
0.99999
0.99999
0.99999
0.999992
0.999996
0.999993
0.99999
0.99999
0.99999
0.99999
0.999992
0.999992
0.999991
0.99999
0.999992
0.999992
0.99999
0.999993
0.999993
0.999991
0.99999
0.99999
0.99999
0.999993
0.999996
0.999991
0.99999
0.99999
0.99999
0.999991
0.999993
0.999992
0.99999
0.999991
0.999992
0.999992
0.99999
0.999991
0.999993
0.999993
0.99999
0.99999
0.99999
0.999994
0.999996
0.99999
0.99999
0.999991
0.999995
0.999995
0.999993
0.99999
0.99999
0.999992
0.999992
0.999992
0.999992
0.99999
0.99999
0.999994
0.999995
0.999992
0.999995
0.999993
0.999996
0.999994
0.999994
0.999995
0.999995
0.999995
0.999993
0.99999
0.99999
0.999991
0.999992
0.999992
0.99999
0.99999
0.99999
0.999994
0.999995
0.999995
0.999995
0.999993
0.999997
0.999994
0.999995
0.999995
0.999994
0.999993
0.999993
0.999991
0.99999
0.99999
0.999991
0.999991
0.99999
0.99999
0.999992
0.999993
0.999993
0.999995
0.999993
0.999993
0.999997
0.999995
0.999995
0.999995
0.999993
0.999993
0.999993
0.999995
0.99999
0.99999
0.99999
0.99999
0.99999
0.999991
0.999995
0.999993
0.999993
0.999996
0.999993
0.999995
0.999997
0.999995
0.999996
0.999996
0.999995
0.999993
0.999993
0.999996
0.999996
0.99999
0.99999
0.99999
0.999991
0.999996
0.999996
0.999993
0.999994
0.999997
0.999993
0.999994
0.999998
0.999996
0.999996
0.999997
0.999997
0.999994
0.999993
0.999996
0.999996
0.999992
0.99999
0.999991
0.999994
0.999996
0.999995
0.999993
0.999996
0.999997
0.999997
0.999996
0.999998
0.999996
0.999997
0.999997
0.999997
0.999995
0.999993
0.999996
0.999996
0.999996
0.999995
0.999996
0.999996
0.999996
0.999995
0.999994
0.999996
0.999997
0.999997
0.999997
0.999998
0.999997
0.999997
0.999998
0.999997
0.999996
0.999995
0.999995
0.999996
0.999998
0.999997
0.999997
0.999997
0.999996
0.999995
0.999996
0.999997
0.999998
0.999998
0.999998
0.999999
0.999998
0.999998
0.999998
0.999998
0.999998
0.999997
0.999996
0.999997
0.999998
0.999998
0.999998
0.999998
0.999997
0.999997
0.999997
0.999998
0.999998
0.999998
0.999998
0.999999
0.999998
0.999999
0.999999
0.999999
0.999998
0.999998
0.999998
0.999998
0.999998
0.999998
0.999998
0.999998
0.999998
0.999998
0.999998
0.999999
0.999999
0.999999
0.999999
0.999999
0.999999
0.999999
0.999999
0.999999
0.999999
0.999999
0.999999
0.999999
0.999999
0.999999
0.999999
0.999999
0.999999
0.999999
0.999999
0.999999
0.999999
0.999999
0.999999
1
0.999999
1
1
1
0.999999
0.999999
0.999999
0.999999
0.999999
0.999999
0.999999
0.999999
0.999999
0.999999
1
1
1
1
1
1
1
1
1
1
1
1
1
1
1
1
1
1
1
1
1
1
1
1
1
1
1
1
1
1
1
1
1
1
1
1
1
1
1
1
1
1
1
1
1
1
1
1
1
1
1
1
1
1
1
1
1
1
1
1
1
1
1
1
1
1
1
1
1
1
1
1
1
1
1
1
1
1
1
1
1
1
1
1
1
1
1
1
1
1
1
1
1
1
1
1
1
1
1
1
1
1
1
1
1
1
1
1
1
1
1
1
1
1
1
1
1
0.999999
0.999999
0.999999
0.999999
0.999999
0.999999
0.999999
0.999999
1
1
1
1
0.999999
1
0.999997
1
0.999998
1
0.999999
1
0.999999
0.999996
0.999999
0.999989
0.999999
0.999992
0.999999
0.999999
1
1
1
1
0.999999
0.999998
0.999997
1
0.999998
0.999999
0.999999
1
0.999999
0.999999
0.999997
0.999989
0.999999
0.999992
0.999997
0.999996
1
0.86842
0.876478
0.87775
0.869438
0.86509
0.870442
0.87237
0.87052
0.865117
0.86684
0.868294
0.872414
0.87348
0.868765
0.867008
0.873337
0.878314
0.86463
0.864071
0.876052
0.120856
0.132379
0.133332
0.124252
0.11719
0.128672
0.134921
0.133119
0.122723
0.127681
0.128026
0.135206
0.132463
0.127912
0.122229
0.136448
0.142099
0.125486
0.123561
0.143559
1.76351e-06
4.01605e-05
7.52552e-05
4.41574e-05
6.5955e-06
0.000117829
0.000103582
0.000105479
1.26963e-05
2.7031e-05
7.18745e-06
9.36316e-05
5.71869e-05
3.42065e-05
6.34465e-06
0.000139659
0.000365943
5.49846e-05
2.36927e-05
0.000253364
1.1751e-06
4.72815e-06
7.29512e-06
4.37073e-05
5.1857e-06
8.15686e-05
1.51287e-05
7.84611e-05
1.19279e-05
5.07243e-05
4.58791e-06
2.59462e-05
3.4621e-05
3.1267e-05
2.12165e-06
2.95431e-05
8.39757e-06
4.86066e-05
1.37099e-05
1.67955e-05
3.60978e-09
2.53788e-08
3.76594e-10
9.37965e-07
2.42816e-08
1.58225e-06
6.48199e-07
1.86739e-06
1.42064e-07
1.99385e-06
8.71968e-07
2.02705e-06
2.44013e-07
1.1212e-09
6.05849e-08
2.33718e-08
1.70123e-07
7.82614e-09
5.92776e-07
8.51598e-07
5.52081e-15
1.73527e-11
2.3049e-16
1.04407e-08
1.44539e-16
9.22004e-08
1.09113e-15
1.35474e-07
1.31315e-09
1.23374e-07
2.27948e-08
6.79502e-08
9.21518e-08
1.02783e-09
4.17352e-08
2.12917e-09
3.86695e-08
7.71289e-09
5.6168e-08
1.36679e-08
5.47088e-15
1.46653e-16
1.45382e-16
1.44539e-16
1.44539e-16
1.44539e-16
1.44703e-16
1.09113e-15
2.42956e-10
1.32593e-09
4.79305e-10
6.38619e-10
1.34377e-09
2.46718e-11
3.15036e-12
6.93073e-12
7.4087e-12
6.45813e-11
7.20398e-11
5.48018e-11
1.38958e-13
1.95139e-16
4.70491e-16
2.93326e-16
1.4461e-16
1.77259e-16
2.85818e-13
1.09215e-11
4.21584e-12
8.84457e-12
4.42327e-12
6.22618e-12
2.02248e-11
1.32847e-12
6.41176e-13
2.04297e-13
3.80783e-12
4.73238e-13
4.1649e-13
1.28109e-13
3.7897e-16
9.35144e-17
5.78266e-15
4.82415e-15
1.50332e-16
4.48476e-15
9.86369e-16
2.04055e-13
2.70509e-13
6.94681e-14
2.94397e-13
7.50721e-13
1.6049e-12
5.43627e-13
3.23716e-13
1.14464e-13
3.20245e-13
3.3987e-14
2.69833e-15
2.80011e-16
4.75421e-18
5.29398e-17
5.55438e-17
2.24299e-17
3.48178e-18
1.16046e-17
3.58043e-17
1.57294e-15
1.40361e-14
3.83678e-14
7.94533e-14
1.20577e-13
1.10742e-13
3.07432e-14
7.61743e-15
4.13775e-15
9.409e-15
3.34436e-15
9.2001e-16
5.45367e-17
9.9865e-19
7.90991e-19
1.69879e-19
3.74745e-20
2.494e-20
2.62802e-20
1.04764e-19
3.83649e-18
2.1407e-16
2.72956e-15
5.09153e-15
6.72598e-15
2.78503e-15
6.26314e-16
2.78826e-16
2.12828e-16
1.69909e-16
7.91408e-17
3.72911e-17
2.36166e-17
)
;

boundaryField
{
    top
    {
        type            inletOutlet;
        inletValue      uniform 0;
        value           nonuniform List<scalar> 
20
(
0
0
0
0
0
0
0
0
2.1407e-16
2.72956e-15
5.09153e-15
6.72598e-15
2.78503e-15
6.26314e-16
2.78826e-16
2.12828e-16
1.69909e-16
7.91408e-17
3.72911e-17
2.36166e-17
)
;
    }
    left
    {
        type            zeroGradient;
    }
    right
    {
        type            zeroGradient;
    }
    bottom
    {
        type            zeroGradient;
    }
    front
    {
        type            empty;
    }
    back
    {
        type            empty;
    }
    frontAndBack
    {
        type            empty;
    }
}


// ************************************************************************* //
