/*--------------------------------*- C++ -*----------------------------------*\
  =========                 |
  \\      /  F ield         | OpenFOAM: The Open Source CFD Toolbox
   \\    /   O peration     | Website:  https://openfoam.org
    \\  /    A nd           | Version:  10
     \\/     M anipulation  |
\*---------------------------------------------------------------------------*/
FoamFile
{
    format      ascii;
    class       volScalarField;
    location    "0.05";
    object      p;
}
// * * * * * * * * * * * * * * * * * * * * * * * * * * * * * * * * * * * * * //

dimensions      [1 -1 -2 0 0 0 0];

internalField   nonuniform List<scalar> 
800
(
14.1733
14.1739
14.1742
14.1725
14.1688
14.1639
14.1589
14.1541
14.1504
14.1485
14.1488
14.1509
14.1546
14.1592
14.165
14.1704
14.1736
14.1752
14.1739
14.1754
13.6802
13.6816
13.6822
13.6808
13.6778
13.6736
13.6697
13.6653
13.6628
13.6612
13.6614
13.663
13.6664
13.6709
13.6745
13.6794
13.6814
13.6831
13.682
13.6832
13.1892
13.1917
13.1921
13.1907
13.188
13.1845
13.1813
13.1774
13.1748
13.1733
13.1734
13.175
13.1778
13.1811
13.1857
13.1884
13.1913
13.1925
13.1917
13.1924
12.7002
12.7034
12.7036
12.7025
12.6994
12.6958
12.6926
12.6888
12.6867
12.6855
12.6856
12.687
12.6893
12.6926
12.6972
12.7
12.7028
12.704
12.703
12.7034
12.2139
12.2163
12.2168
12.2156
12.2127
12.2085
12.2067
12.2019
12.1994
12.1984
12.1985
12.1998
12.202
12.2077
12.2095
12.2133
12.2163
12.2176
12.2168
12.2168
11.7313
11.7347
11.7352
11.7318
11.7285
11.7233
11.7208
11.7174
11.7141
11.7131
11.7132
11.7144
11.7167
11.7232
11.7246
11.7288
11.7323
11.734
11.7331
11.7329
11.2508
11.2534
11.2525
11.2507
11.2467
11.2415
11.2379
11.2343
11.2317
11.2303
11.2305
11.2319
11.235
11.2397
11.2429
11.2473
11.2513
11.2533
11.2523
11.252
10.7736
10.7755
10.7755
10.7727
10.7683
10.7627
10.7586
10.7543
10.7529
10.7511
10.7509
10.7537
10.7559
10.7604
10.7634
10.7693
10.7734
10.7759
10.7744
10.7741
10.2983
10.3015
10.3012
10.2979
10.2924
10.2891
10.2828
10.2805
10.2768
10.2761
10.2759
10.2781
10.2787
10.2845
10.2878
10.2946
10.2989
10.3014
10.3
10.2994
9.82837
9.83029
9.82926
9.82739
9.82427
9.81699
9.81305
9.80969
9.80646
9.80557
9.80549
9.80655
9.80908
9.81224
9.81756
9.82292
9.82515
9.82693
9.82893
9.82724
9.35848
9.35942
9.35935
9.35854
9.35528
9.34859
9.34577
9.34244
9.33949
9.33937
9.33918
9.33927
9.34192
9.34535
9.34826
9.35414
9.35735
9.35824
9.36038
9.35769
8.89191
8.89223
8.89144
8.88918
8.88651
8.88316
8.88032
8.8784
8.8767
8.87596
8.87544
8.87659
8.87776
8.87952
8.88275
8.88544
8.88889
8.89143
8.89081
8.89169
8.42611
8.42525
8.42399
8.424
8.42174
8.41916
8.41885
8.41623
8.41564
8.41521
8.41518
8.41517
8.41559
8.41709
8.4196
8.4202
8.42288
8.42512
8.42324
8.42501
7.96031
7.95893
7.95691
7.95585
7.95683
7.95575
7.95822
7.95716
7.95583
7.95617
7.95617
7.9552
7.95659
7.95627
7.95623
7.9539
7.95678
7.95686
7.95616
7.95687
7.49329
7.49089
7.49015
7.48966
7.48936
7.4924
7.49328
7.49454
7.49457
7.49672
7.49615
7.49357
7.49432
7.4913
7.49231
7.48631
7.48652
7.48444
7.4855
7.48721
7.02444
7.02124
7.0197
7.01952
7.02053
7.02638
7.02598
7.02863
7.02962
7.03055
7.03057
7.02963
7.02828
7.02504
7.02227
7.01688
7.01434
7.01296
7.0135
7.0161
6.5534
6.54964
6.54773
6.54703
6.54848
6.55191
6.55624
6.55848
6.56165
6.56229
6.56222
6.56094
6.55761
6.55389
6.54812
6.54338
6.5403
6.53907
6.53993
6.54266
6.07996
6.07585
6.07312
6.07183
6.07254
6.07531
6.07946
6.08233
6.08555
6.08702
6.08689
6.08497
6.08113
6.0762
6.07107
6.06655
6.06376
6.06265
6.06369
6.06643
5.6044
5.59995
5.5963
5.59397
5.59326
5.59447
5.59678
5.59978
5.60271
5.60433
5.60425
5.6024
5.5989
5.5947
5.59042
5.58689
5.58477
5.58407
5.58524
5.58794
5.12744
5.12258
5.11774
5.1137
5.11099
5.11014
5.1108
5.11242
5.11427
5.11552
5.11568
5.11462
5.11247
5.10979
5.10711
5.10504
5.10389
5.1038
5.10515
5.10768
4.64997
4.64453
4.63801
4.63154
4.62624
4.62299
4.62169
4.62155
4.62201
4.62266
4.62327
4.62355
4.62336
4.62285
4.62225
4.62191
4.62189
4.62247
4.62402
4.62635
4.17315
4.16687
4.15786
4.14771
4.13893
4.13325
4.13023
4.12828
4.12715
4.12713
4.12852
4.13068
4.13302
4.13507
4.1368
4.13837
4.13951
4.14073
4.14249
4.14463
3.69821
3.69118
3.67845
3.66198
3.64798
3.6403
3.63684
3.63331
3.62998
3.62889
3.63173
3.63671
3.64237
3.64727
3.65148
3.65535
3.65757
3.65927
3.66125
3.66331
3.22645
3.22061
3.20239
3.17321
3.15002
3.14262
3.1427
3.13764
3.12983
3.12623
3.1322
3.1418
3.15232
3.15997
3.1665
3.17408
3.17688
3.17796
3.18037
3.18304
2.75682
2.76091
2.73635
2.67745
2.63496
2.6365
2.65242
2.64397
2.62414
2.61322
2.62745
2.64504
2.66456
2.67292
2.68092
2.69791
2.69952
2.69641
2.70026
2.70556
2.27982
2.32828
2.30408
2.16516
2.07677
2.11755
2.18887
2.16515
2.10994
2.07805
2.1266
2.18239
2.19709
2.1782
2.18802
2.23756
2.22977
2.20887
2.22071
2.23559
1.71377
1.96054
1.97815
1.5882
1.36691
1.55852
1.80835
1.7057
1.48665
1.41466
1.56985
1.74835
1.73988
1.60942
1.62789
1.82823
1.77214
1.67039
1.71644
1.80829
0.853271
1.96274
2.17255
0.879359
0.19921
1.03444
1.99285
1.49513
0.682106
0.528296
1.18927
1.87238
1.65331
0.837914
0.815986
1.77621
1.86778
0.87333
0.877207
1.96643
-1.89773
2.98286
3.95709
-0.909586
-3.33138
0.224389
3.56764
1.79443
-1.49291
-1.87277
0.480839
2.72601
2.19798
-1.3772
-1.92487
2.88039
3.855
-1.86677
-2.3745
3.97011
-7.59028
7.2109
10.4221
-3.813
-10.6502
0.072303
9.46021
3.56916
-5.34606
-5.06334
0.280362
5.96996
5.38168
-5.13517
-8.01914
7.16741
11.8157
-8.43802
-10.3679
11.5687
-0.915595
0.958603
1.38611
-0.486656
-1.34433
0.0828617
1.52196
0.582165
-0.722269
-0.636922
0.090544
0.848204
0.732622
-0.751213
-1.27721
1.08978
2.1027
-1.17777
-1.58544
2.00769
0.0486487
-0.0143512
-0.0324605
0.024724
0.0590371
0.0172358
-0.0272402
0.00153664
0.0252126
0.0151775
0.00843671
-0.0114136
-0.0118768
0.0244759
0.0484364
-0.0200889
-0.0465605
0.0557806
0.0638226
-0.064051
0.0189445
4.76993e-05
-0.00544089
0.00475788
0.0309814
0.01412
-0.0142238
0.00549745
0.00593071
0.00250158
0.0204708
-0.00388793
0.000576681
0.0120003
0.0187211
-0.0103462
-0.0139684
0.0188008
0.017815
-0.00451642
0.00822441
0.00217491
6.87338e-05
0.00854633
0.0130437
0.00135738
-0.00579676
-0.00309409
0.00184961
0.00406866
0.00756254
0.000431868
-0.00163558
0.00501174
0.00805083
-0.00204332
-0.00337952
0.00679704
0.0122851
0.0089444
0.00530902
0.00267411
0.00180075
0.00560168
0.00684649
0.00175194
-0.00217595
-0.00109282
0.00168164
0.00295488
0.00315884
0.000913172
0.000215112
0.00375323
0.00523774
0.000667034
6.78444e-05
0.00672691
0.00977023
0.00717847
0.00313127
0.00256258
0.00235834
0.00335114
0.00348199
0.00141863
-0.000214079
-5.00812e-05
0.00100752
0.0017325
0.00198723
0.00136022
0.0011047
0.0023697
0.00289835
0.00195151
0.00228702
0.00437107
0.00590822
0.00598616
0.0020786
0.00174421
0.00165205
0.00208768
0.00205447
0.0010312
0.00016999
0.00022476
0.000831887
0.0012443
0.00133367
0.0010528
0.00114878
0.00187377
0.00217429
0.00177055
0.00206411
0.00328968
0.00414715
0.00415474
0.00129015
0.00110044
0.00105432
0.0012224
0.00117422
0.000689721
0.000260016
0.000290732
0.000615742
0.000842447
0.000881161
0.000798864
0.00093837
0.00133461
0.0015093
0.00139593
0.00160819
0.00225591
0.00270721
0.00271679
0.000699383
0.000604619
0.000579291
0.000631719
0.000593208
0.000386478
0.000213089
0.000262348
0.000429178
0.000519764
0.000531101
0.000518395
0.000609774
0.000793101
0.000880308
0.000864343
0.00097869
0.00125956
0.00146543
0.00148612
0.000222715
0.000191427
0.00018133
0.000190888
0.00017841
0.0001262
9.92671e-05
0.000170505
0.000226219
0.000210166
0.000190971
0.000185466
0.000216876
0.000267598
0.000284353
0.000269241
0.000287375
0.000352296
0.000403329
0.000408521
)
;

boundaryField
{
    top
    {
        type            calculated;
        value           nonuniform List<scalar> 
20
(
-5.10196e-07
-1.88318e-06
-3.54609e-06
-4.61169e-06
-4.52676e-06
-3.39483e-06
-1.71962e-06
-3.92879e-07
0
0
0
0
0
0
0
0
0
0
0
0
)
;
    }
    left
    {
        type            calculated;
        value           nonuniform List<scalar> 
40
(
14.1733
13.6802
13.1892
12.7002
12.2139
11.7313
11.2508
10.7736
10.2983
9.82837
9.35848
8.89191
8.42611
7.96031
7.49329
7.02444
6.5534
6.07996
5.6044
5.12744
4.64997
4.17315
3.69821
3.22645
2.75682
2.27982
1.71377
0.853271
-1.89773
-7.59028
-0.915595
0.0486487
0.0189445
0.00822441
0.00530902
0.00313127
0.0020786
0.00129015
0.000699383
0.000222715
)
;
    }
    right
    {
        type            calculated;
        value           nonuniform List<scalar> 
40
(
14.1754
13.6832
13.1924
12.7034
12.2168
11.7329
11.252
10.7741
10.2994
9.82724
9.35769
8.89169
8.42501
7.95687
7.48721
7.0161
6.54266
6.06643
5.58794
5.10768
4.62635
4.14463
3.66331
3.18304
2.70556
2.23559
1.80829
1.96643
3.97011
11.5687
2.00769
-0.064051
-0.00451642
0.0089444
0.00717847
0.00598616
0.00415474
0.00271679
0.00148612
0.000408521
)
;
    }
    bottom
    {
        type            calculated;
        value           nonuniform List<scalar> 
20
(
14.4185
14.4191
14.4194
14.4177
14.4139
14.409
14.404
14.3991
14.3953
14.3934
14.3937
14.3959
14.3996
14.4043
14.4101
14.4155
14.4188
14.4204
14.4192
14.4206
)
;
    }
    front
    {
        type            empty;
    }
    back
    {
        type            empty;
    }
    frontAndBack
    {
        type            empty;
    }
}


// ************************************************************************* //
