/*--------------------------------*- C++ -*----------------------------------*\
  =========                 |
  \\      /  F ield         | OpenFOAM: The Open Source CFD Toolbox
   \\    /   O peration     | Website:  https://openfoam.org
    \\  /    A nd           | Version:  10
     \\/     M anipulation  |
\*---------------------------------------------------------------------------*/
FoamFile
{
    format      ascii;
    class       volScalarField;
    location    "0.05";
    object      p_rgh;
}
// * * * * * * * * * * * * * * * * * * * * * * * * * * * * * * * * * * * * * //

dimensions      [1 -1 -2 0 0 0 0];

internalField   nonuniform List<scalar> 
800
(
14.4185
14.4191
14.4195
14.4177
14.414
14.4091
14.4042
14.3994
14.3956
14.3937
14.394
14.3961
14.3998
14.4045
14.4102
14.4156
14.4189
14.4204
14.4192
14.4206
14.4159
14.4174
14.4179
14.4166
14.4136
14.4093
14.4055
14.4011
14.3985
14.3969
14.3972
14.3988
14.4021
14.4066
14.4103
14.4151
14.4171
14.4188
14.4178
14.419
14.4154
14.4179
14.4183
14.4169
14.4142
14.4107
14.4075
14.4036
14.401
14.3996
14.3996
14.4012
14.4041
14.4074
14.4119
14.4146
14.4175
14.4188
14.4179
14.4186
14.4169
14.4201
14.4204
14.4192
14.4162
14.4125
14.4093
14.4055
14.4034
14.4023
14.4024
14.4037
14.4061
14.4094
14.4139
14.4167
14.4195
14.4207
14.4197
14.4201
14.4211
14.4235
14.424
14.4229
14.4199
14.4158
14.4139
14.4091
14.4067
14.4056
14.4057
14.407
14.4092
14.415
14.4168
14.4206
14.4235
14.4249
14.4241
14.4241
14.429
14.4324
14.4329
14.4295
14.4262
14.4211
14.4185
14.4151
14.4118
14.4108
14.4109
14.4121
14.4144
14.421
14.4223
14.4266
14.43
14.4317
14.4308
14.4306
14.439
14.4416
14.4407
14.4389
14.4349
14.4297
14.4261
14.4225
14.4199
14.4185
14.4187
14.4201
14.4232
14.4279
14.4311
14.4356
14.4395
14.4416
14.4405
14.4402
14.4523
14.4542
14.4542
14.4514
14.447
14.4414
14.4373
14.433
14.4316
14.4298
14.4296
14.4324
14.4346
14.4391
14.4422
14.4481
14.4522
14.4546
14.4531
14.4528
14.4675
14.4707
14.4704
14.4671
14.4616
14.4584
14.4521
14.4497
14.446
14.4454
14.4451
14.4473
14.448
14.4537
14.4571
14.4639
14.4681
14.4706
14.4692
14.4686
14.4881
14.49
14.489
14.4871
14.484
14.4767
14.4728
14.4694
14.4662
14.4653
14.4652
14.4663
14.4688
14.4719
14.4773
14.4826
14.4849
14.4867
14.4886
14.487
14.5087
14.5096
14.5096
14.5088
14.5055
14.4988
14.496
14.4926
14.4897
14.4896
14.4894
14.4895
14.4921
14.4956
14.4985
14.5044
14.5076
14.5085
14.5106
14.5079
14.5326
14.533
14.5322
14.5299
14.5272
14.5239
14.521
14.5191
14.5174
14.5167
14.5161
14.5173
14.5185
14.5202
14.5235
14.5262
14.5296
14.5321
14.5315
14.5324
14.5573
14.5565
14.5552
14.5552
14.5529
14.5504
14.5501
14.5474
14.5468
14.5464
14.5464
14.5464
14.5468
14.5483
14.5508
14.5514
14.5541
14.5563
14.5545
14.5562
14.582
14.5807
14.5786
14.5776
14.5785
14.5775
14.5799
14.5789
14.5775
14.5779
14.5779
14.5769
14.5783
14.578
14.5779
14.5756
14.5785
14.5786
14.5779
14.5786
14.6055
14.6031
14.6024
14.6019
14.6016
14.6046
14.6055
14.6068
14.6068
14.6089
14.6083
14.6058
14.6065
14.6035
14.6045
14.5985
14.5988
14.5967
14.5977
14.5994
14.6272
14.624
14.6224
14.6223
14.6232
14.6291
14.6287
14.6314
14.6323
14.6333
14.6333
14.6324
14.631
14.6278
14.625
14.6196
14.6171
14.6157
14.6162
14.6188
14.6466
14.6429
14.641
14.6403
14.6417
14.6451
14.6494
14.6517
14.6549
14.6555
14.6554
14.6542
14.6508
14.6471
14.6413
14.6366
14.6335
14.6323
14.6332
14.6359
14.6637
14.6596
14.6569
14.6556
14.6563
14.659
14.6632
14.6661
14.6693
14.6708
14.6706
14.6687
14.6649
14.6599
14.6548
14.6503
14.6475
14.6464
14.6474
14.6502
14.6786
14.6742
14.6705
14.6682
14.6675
14.6687
14.671
14.674
14.6769
14.6786
14.6785
14.6766
14.6731
14.6689
14.6647
14.6611
14.659
14.6583
14.6595
14.6622
14.6922
14.6873
14.6825
14.6784
14.6757
14.6749
14.6755
14.6772
14.679
14.6803
14.6804
14.6794
14.6772
14.6745
14.6718
14.6698
14.6686
14.6685
14.6699
14.6724
14.7052
14.6998
14.6933
14.6868
14.6815
14.6782
14.6769
14.6768
14.6773
14.6779
14.6785
14.6788
14.6786
14.6781
14.6775
14.6772
14.6771
14.6777
14.6793
14.6816
14.7189
14.7126
14.7036
14.6935
14.6847
14.679
14.676
14.674
14.6729
14.6729
14.6743
14.6764
14.6788
14.6808
14.6826
14.6841
14.6853
14.6865
14.6882
14.6904
14.7345
14.7274
14.7147
14.6982
14.6842
14.6766
14.6731
14.6696
14.6662
14.6651
14.668
14.673
14.6786
14.6835
14.6877
14.6916
14.6938
14.6955
14.6975
14.6996
14.7532
14.7474
14.7291
14.7
14.6768
14.6694
14.6695
14.6644
14.6566
14.653
14.659
14.6686
14.6791
14.6867
14.6933
14.7008
14.7036
14.7047
14.7071
14.7098
14.7741
14.7782
14.7536
14.6947
14.6522
14.6538
14.6697
14.6612
14.6414
14.6305
14.6447
14.6623
14.6818
14.6902
14.6982
14.7152
14.7168
14.7137
14.7175
14.7228
14.7876
14.836
14.8118
14.6729
14.5845
14.6253
14.6966
14.6729
14.6177
14.5858
14.6344
14.6901
14.7048
14.6859
14.6958
14.7453
14.7375
14.7166
14.7285
14.7433
14.712
14.9588
14.9764
14.5864
14.3652
14.5568
14.8066
14.7039
14.4849
14.4129
14.5681
14.7466
14.7381
14.6077
14.6261
14.8265
14.7704
14.6686
14.7147
14.8065
14.342
15.4515
15.6613
14.3681
13.688
14.5231
15.4816
14.9839
14.1709
14.017
14.678
15.3611
15.142
14.3267
14.3046
15.2649
15.3564
14.3621
14.3659
15.4552
12.0815
16.9621
17.9363
13.0696
10.6478
14.2036
17.5469
15.7736
12.4863
12.1065
14.4601
16.7053
16.1772
12.602
12.0542
16.8596
17.8341
12.1124
11.6047
17.9494
4.97744
19.8951
23.1247
8.76944
1.8694
12.6693
22.085
16.1673
7.17392
7.48155
12.8463
18.5954
18.0225
7.43754
4.52817
19.8062
24.5264
4.07492
2.13696
24.2468
0.905593
2.952
3.39376
1.38528
0.422067
2.02086
3.55334
2.58663
1.12682
1.28627
2.01888
2.88385
2.72728
1.17543
0.564503
3.144
4.24136
0.712612
0.276185
4.16817
0.0641267
0.00171941
-0.0158482
0.0408564
0.0745896
0.0345052
-0.0101906
0.0186155
0.0408593
0.0310454
0.0239984
0.00548236
0.00445662
0.0404546
0.0639851
-0.00248251
-0.0254613
0.0720801
0.079639
-0.0446895
0.0349044
0.0160642
0.0106165
0.0213952
0.0470053
0.0313602
0.00195833
0.0226882
0.0220619
0.0192506
0.0364851
0.0124665
0.0170693
0.0284394
0.0346962
0.00606557
0.00210657
0.0355161
0.0339745
0.0116923
0.0246562
0.0186071
0.0165005
0.0249935
0.0294758
0.0178151
0.0106456
0.0133683
0.0182837
0.0205331
0.0240086
0.0168969
0.0148002
0.0214435
0.0244836
0.0143888
0.013055
0.0232289
0.0287266
0.0253901
0.0222313
0.0195964
0.018723
0.0225241
0.0237687
0.0186757
0.0147463
0.0158317
0.0186039
0.0198792
0.0200815
0.0178366
0.0171389
0.0206755
0.0221607
0.0175893
0.0169907
0.0236493
0.0266934
0.024101
0.020544
0.0199753
0.0197711
0.0207639
0.0208947
0.0188314
0.0171987
0.0173627
0.0184203
0.0191453
0.0194
0.018773
0.0185175
0.0197824
0.0203111
0.0193643
0.0196998
0.0217838
0.023321
0.0233989
0.0199818
0.0196475
0.0195553
0.0199909
0.0199577
0.0189345
0.0180732
0.018128
0.0187351
0.0191476
0.0192369
0.018956
0.019052
0.019777
0.0200775
0.0196738
0.0199674
0.0211929
0.0220504
0.022058
0.0196839
0.0194942
0.0194481
0.0196161
0.019568
0.0190835
0.0186538
0.0186845
0.0190095
0.0192362
0.0192749
0.0191926
0.0193321
0.0197284
0.019903
0.0197897
0.0200019
0.0206497
0.021101
0.0211105
0.0195836
0.0194889
0.0194635
0.019516
0.0194775
0.0192707
0.0190973
0.0191466
0.0193134
0.019404
0.0194154
0.0194026
0.019494
0.0196774
0.0197646
0.0197486
0.0198629
0.0201438
0.0203497
0.0203704
0.0195975
0.0195662
0.0195561
0.0195656
0.0195532
0.019501
0.019474
0.0195453
0.019601
0.0195849
0.0195657
0.0195602
0.0195916
0.0196423
0.0196591
0.019644
0.0196621
0.019727
0.0197781
0.0197833
)
;

boundaryField
{
    top
    {
        type            prghTotalPressure;
        rho             rho;
        psi             none;
        gamma           1;
        p0              uniform 0;
        value           nonuniform List<scalar> 
20
(
0.0196195
0.0196181
0.0196165
0.0196154
0.0196155
0.0196166
0.0196183
0.0196196
0.01962
0.01962
0.01962
0.01962
0.01962
0.01962
0.01962
0.01962
0.01962
0.01962
0.01962
0.01962
)
;
        rho             rho;
    }
    left
    {
        type            fixedFluxPressure;
        gradient        uniform 0;
        value           nonuniform List<scalar> 
40
(
14.4185
14.4159
14.4154
14.4169
14.4211
14.429
14.439
14.4523
14.4675
14.4881
14.5087
14.5326
14.5573
14.582
14.6055
14.6272
14.6466
14.6637
14.6786
14.6922
14.7052
14.7189
14.7345
14.7532
14.7741
14.7876
14.712
14.342
12.0815
4.97744
0.905593
0.0641267
0.0349044
0.0246562
0.0222313
0.020544
0.0199818
0.0196839
0.0195836
0.0195975
)
;
    }
    right
    {
        type            fixedFluxPressure;
        gradient        uniform 0;
        value           nonuniform List<scalar> 
40
(
14.4206
14.419
14.4186
14.4201
14.4241
14.4306
14.4402
14.4528
14.4686
14.487
14.5079
14.5324
14.5562
14.5786
14.5994
14.6188
14.6359
14.6502
14.6622
14.6724
14.6816
14.6904
14.6996
14.7098
14.7228
14.7433
14.8065
15.4552
17.9494
24.2468
4.16817
-0.0446895
0.0116923
0.0253901
0.024101
0.0233989
0.022058
0.0211105
0.0203704
0.0197833
)
;
    }
    bottom
    {
        type            fixedFluxPressure;
        gradient        nonuniform List<scalar> 
20
(
-0.22423
-0.414401
-0.855679
-1.65289
-2.91627
-4.70221
-6.93865
-9.37161
-11.5316
-12.8294
-12.8223
-11.512
-9.34505
-6.91291
-4.68298
-2.90539
-1.64845
-0.854315
-0.414195
-0.224224
)
;
        value           nonuniform List<scalar> 
20
(
14.4185
14.4191
14.4194
14.4177
14.4139
14.409
14.404
14.3991
14.3953
14.3934
14.3937
14.3959
14.3996
14.4043
14.4101
14.4155
14.4188
14.4204
14.4192
14.4206
)
;
    }
    front
    {
        type            empty;
    }
    back
    {
        type            empty;
    }
    frontAndBack
    {
        type            empty;
    }
}


// ************************************************************************* //
