/*--------------------------------*- C++ -*----------------------------------*\
  =========                 |
  \\      /  F ield         | OpenFOAM: The Open Source CFD Toolbox
   \\    /   O peration     | Website:  https://openfoam.org
    \\  /    A nd           | Version:  10
     \\/     M anipulation  |
\*---------------------------------------------------------------------------*/
FoamFile
{
    format      ascii;
    class       surfaceScalarField;
    location    "0.05";
    object      phi;
}
// * * * * * * * * * * * * * * * * * * * * * * * * * * * * * * * * * * * * * //

dimensions      [0 3 -1 0 0 0 0];

internalField   nonuniform List<scalar> 
1540
(
7.73893e-14
-7.76492e-14
3.6314e-13
-2.86049e-13
7.8283e-13
-4.19999e-13
1.19432e-12
-4.11798e-13
1.47561e-12
-2.81599e-13
1.55364e-12
-7.83465e-14
1.39106e-12
1.62275e-13
1.03064e-12
3.60104e-13
5.08356e-13
5.21978e-13
-8.95034e-14
5.97549e-13
-6.72464e-13
5.8265e-13
-1.17597e-12
5.03197e-13
-1.51482e-12
3.38538e-13
-1.66275e-12
1.47623e-13
-1.56705e-12
-9.6004e-14
-1.25498e-12
-3.12374e-13
-8.06304e-13
-4.48978e-13
-3.87586e-13
-4.19043e-13
-7.74964e-14
-3.10427e-13
-7.7666e-14
3.06169e-13
-3.84117e-13
1.04889e-12
-1.0291e-12
1.9912e-12
-1.36266e-12
2.86465e-12
-1.28559e-12
3.44901e-12
-8.66304e-13
3.60089e-12
-2.30567e-13
3.20057e-12
5.62255e-13
2.35469e-12
1.20564e-12
1.15898e-12
1.71735e-12
-1.92626e-13
1.94881e-12
-1.53552e-12
1.9252e-12
-2.69517e-12
1.6625e-12
-3.51612e-12
1.15915e-12
-3.84304e-12
4.742e-13
-3.64369e-12
-2.95686e-13
-3.01753e-12
-9.38872e-13
-2.09168e-12
-1.37517e-12
-1.09119e-12
-1.41987e-12
-3.12317e-13
-1.08965e-12
-3.90158e-13
4.81894e-13
-8.66323e-13
1.58246e-12
-2.13002e-12
2.86747e-12
-2.64802e-12
4.02474e-12
-2.44321e-12
4.76585e-12
-1.60777e-12
4.87745e-12
-3.42519e-13
4.40675e-12
1.0326e-12
3.2346e-12
2.37743e-12
1.6243e-12
3.3273e-12
-2.41247e-13
3.814e-12
-2.10026e-12
3.78387e-12
-3.6871e-12
3.24898e-12
-4.79527e-12
2.26696e-12
-5.25427e-12
9.32858e-13
-5.042e-12
-5.08313e-13
-4.20694e-12
-1.77427e-12
-2.97387e-12
-2.6086e-12
-1.61382e-12
-2.78027e-12
-4.98316e-13
-2.20551e-12
-8.88649e-13
6.37381e-13
-1.50402e-12
1.96506e-12
-3.45804e-12
3.48107e-12
-4.1644e-12
4.84615e-12
-3.80865e-12
5.70162e-12
-2.46359e-12
5.83133e-12
-4.72591e-13
5.13453e-12
1.72905e-12
3.78064e-12
3.73096e-12
1.88784e-12
5.21974e-12
-2.90564e-13
5.99204e-12
-2.45969e-12
5.95263e-12
-4.31954e-12
5.10848e-12
-5.62111e-12
3.56818e-12
-6.22353e-12
1.53492e-12
-6.02674e-12
-7.05451e-13
-5.07219e-12
-2.72917e-12
-3.61031e-12
-4.07083e-12
-1.98104e-12
-4.4099e-12
-6.24313e-13
-3.5626e-12
-1.51314e-12
7.02221e-13
-2.20656e-12
2.14077e-12
-4.89694e-12
3.87314e-12
-5.89713e-12
5.39092e-12
-5.32679e-12
6.32743e-12
-3.40046e-12
6.43603e-12
-5.81548e-13
5.65057e-12
2.51416e-12
4.12309e-12
5.25808e-12
2.04553e-12
7.29694e-12
-3.30958e-13
8.36817e-12
-2.69472e-12
8.31604e-12
-4.73013e-12
7.14353e-12
-6.18284e-12
5.02054e-12
-6.8691e-12
2.22082e-12
-6.66766e-12
-9.07244e-13
-5.65865e-12
-3.73853e-12
-4.05272e-12
-5.67711e-12
-2.23292e-12
-6.23006e-12
-7.03859e-13
-5.09202e-12
-2.21718e-12
7.12078e-13
-2.91896e-12
2.27115e-12
-6.45636e-12
4.13604e-12
-7.76237e-12
5.70065e-12
-6.89176e-12
6.60858e-12
-4.30876e-12
6.71076e-12
-6.8408e-13
5.91233e-12
3.31223e-12
4.2931e-12
6.87694e-12
2.12376e-12
9.46591e-12
-3.61356e-13
1.08529e-11
-2.82571e-12
1.078e-11
-4.95496e-12
9.27242e-12
-6.47362e-12
6.53884e-12
-7.24503e-12
2.99188e-12
-7.06331e-12
-1.08932e-12
-6.0079e-12
-4.7943e-12
-4.32491e-12
-7.36045e-12
-2.40329e-12
-8.15204e-12
-7.66799e-13
-6.72887e-12
-2.98415e-12
7.67675e-13
-3.68695e-12
2.38188e-12
-8.07092e-12
4.22605e-12
-9.6069e-12
5.78671e-12
-8.45278e-12
6.69781e-12
-5.22021e-12
6.73443e-12
-7.21062e-13
5.90851e-12
4.13778e-12
4.30854e-12
8.47656e-12
2.118e-12
1.16561e-11
-3.87049e-13
1.33576e-11
-2.86286e-12
1.32555e-11
-4.9712e-12
1.13804e-11
-6.56142e-12
8.1287e-12
-7.25485e-12
3.68495e-12
-7.11297e-12
-1.23155e-12
-6.06531e-12
-5.84232e-12
-4.38829e-12
-9.03783e-12
-2.45399e-12
-1.00867e-11
-7.88193e-13
-8.39503e-12
-3.77252e-12
7.27491e-13
-4.41476e-12
2.32032e-12
-9.6641e-12
4.08056e-12
-1.13675e-11
5.54721e-12
-9.9198e-12
6.37688e-12
-6.05024e-12
6.39747e-12
-7.42016e-13
5.5742e-12
4.96069e-12
4.05638e-12
9.99402e-12
1.95373e-12
1.37584e-11
-3.88645e-13
1.56996e-11
-2.74344e-12
1.56099e-11
-4.87594e-12
1.35125e-11
-6.30286e-12
9.55527e-12
-7.01405e-12
4.39579e-12
-6.75312e-12
-1.49283e-12
-5.7792e-12
-6.81659e-12
-4.20227e-12
-1.06151e-11
-2.36245e-12
-1.19269e-11
-7.605e-13
-9.99733e-12
-4.5332e-12
7.00718e-13
-5.1158e-12
2.06194e-12
-1.10257e-11
3.63073e-12
-1.29366e-11
4.94376e-12
-1.12332e-11
5.69996e-12
-6.80679e-12
5.7138e-12
-7.56218e-13
5.03232e-12
5.64181e-12
3.61353e-12
1.14125e-11
1.7316e-12
1.56399e-11
-3.78937e-13
1.78098e-11
-2.45466e-12
1.76853e-11
-4.25293e-12
1.53105e-11
-5.55428e-12
1.08563e-11
-6.11124e-12
4.9524e-12
-5.949e-12
-1.65543e-12
-5.11439e-12
-7.65154e-12
-3.73631e-12
-1.19936e-11
-2.09916e-12
-1.35644e-11
-6.67547e-13
-1.14293e-11
-5.20092e-12
5.2937e-13
-5.64548e-12
1.5768e-12
-1.20734e-11
2.78814e-12
-1.41484e-11
3.82688e-12
-1.22723e-11
4.51094e-12
-7.49121e-12
4.6214e-12
-8.67037e-13
4.03598e-12
6.22688e-12
2.85258e-12
1.25955e-11
1.30769e-12
1.71845e-11
-4.25665e-13
1.95428e-11
-2.1475e-12
1.94068e-11
-3.59291e-12
1.67555e-11
-4.65182e-12
1.19148e-11
-5.03705e-12
5.33728e-12
-4.85212e-12
-1.84072e-12
-4.04561e-12
-8.45839e-12
-2.98133e-12
-1.30582e-11
-1.6837e-12
-1.48624e-11
-5.36544e-13
-1.25768e-11
-5.73764e-12
3.07013e-13
-5.95281e-12
9.30671e-13
-1.26974e-11
1.67586e-12
-1.48939e-11
2.45959e-12
-1.30564e-11
3.04409e-12
-8.07605e-12
3.18456e-12
-1.00786e-12
2.79265e-12
6.61843e-12
1.95386e-12
1.34339e-11
7.99693e-13
1.83383e-11
-4.72928e-13
2.08151e-11
-1.73169e-12
2.06652e-11
-2.80659e-12
1.78301e-11
-3.51299e-12
1.26209e-11
-3.73883e-12
5.56278e-12
-3.4151e-12
-2.16479e-12
-2.78489e-12
-9.08895e-12
-1.90208e-12
-1.39413e-11
-1.086e-12
-1.56788e-11
-4.40555e-13
-1.32226e-11
-6.17837e-12
1.18151e-13
-6.07127e-12
3.50102e-13
-1.29297e-11
6.41226e-13
-1.51854e-11
9.97141e-13
-1.34126e-11
1.29247e-12
-8.37173e-12
1.40481e-12
-1.12055e-12
1.25288e-12
6.77002e-12
7.95311e-13
1.38912e-11
1.62463e-13
1.89708e-11
-5.16523e-13
2.14937e-11
-1.16503e-12
2.13133e-11
-1.71433e-12
1.8379e-11
-2.00289e-12
1.29091e-11
-1.99596e-12
5.5555e-12
-1.67214e-12
-2.48896e-12
-1.20312e-12
-9.5583e-12
-8.03103e-13
-1.43417e-11
-3.61868e-13
-1.61204e-11
-7.42647e-14
-1.35106e-11
-6.2528e-12
-9.1703e-14
-5.97988e-12
-3.2632e-13
-1.26955e-11
-5.16968e-13
-1.49951e-11
-6.56222e-13
-1.32737e-11
-6.42611e-13
-8.38569e-12
-5.33472e-13
-1.23003e-12
-5.249e-13
6.7611e-12
-5.33843e-13
1.38998e-11
-5.68624e-13
1.90052e-11
-6.13e-13
2.15377e-11
-5.9275e-13
2.12927e-11
-4.97942e-13
1.82839e-11
-2.86918e-13
1.26977e-11
-1.0082e-14
5.27833e-12
2.88864e-13
-2.78823e-12
4.60513e-13
-9.73028e-12
4.99442e-13
-1.43809e-11
2.6547e-13
-1.58867e-11
1.24341e-13
-1.33698e-11
-6.12862e-12
-3.25634e-13
-5.65455e-12
-9.88857e-13
-1.20326e-11
-1.80594e-12
-1.41783e-11
-2.41536e-12
-1.26647e-11
-2.70325e-12
-8.09813e-12
-2.57728e-12
-1.35635e-12
-2.35324e-12
6.53672e-12
-1.94251e-12
1.34887e-11
-1.3813e-12
1.84437e-11
-7.37394e-13
2.08935e-11
-4.94296e-14
2.06044e-11
6.45505e-13
1.75886e-11
1.27779e-12
1.20651e-11
1.81716e-12
4.73864e-12
2.14328e-12
-3.11468e-12
2.04809e-12
-9.63541e-12
1.55117e-12
-1.38844e-11
9.0175e-13
-1.52376e-11
3.07471e-13
-1.27758e-11
-5.82131e-12
-5.38186e-13
-5.11667e-12
-1.63454e-12
-1.09366e-11
-2.94066e-12
-1.28725e-11
-4.0591e-12
-1.15465e-11
-4.67791e-12
-7.47966e-12
-4.73164e-12
-1.30296e-12
-4.1807e-12
5.98544e-12
-3.28567e-12
1.25933e-11
-2.12389e-12
1.72816e-11
-8.80232e-13
1.96495e-11
4.17732e-13
1.93062e-11
1.70767e-12
1.62983e-11
2.80804e-12
1.09644e-11
3.59884e-12
3.94752e-12
3.78196e-12
-3.29812e-12
3.46303e-12
-9.31681e-12
2.63038e-12
-1.3052e-11
1.50568e-12
-1.41133e-11
4.61291e-13
-1.17318e-11
-5.36018e-12
-6.89941e-13
-4.42703e-12
-2.12462e-12
-9.50222e-12
-3.79873e-12
-1.11988e-11
-5.24853e-12
-1.00971e-11
-6.17146e-12
-6.55707e-12
-6.37954e-12
-1.09521e-12
-5.71599e-12
5.32155e-12
-4.41969e-12
1.12967e-11
-2.83782e-12
1.56994e-11
-1.03781e-12
1.78492e-11
8.29973e-13
1.7438e-11
2.57388e-12
1.45541e-11
4.04909e-12
9.48888e-12
4.96381e-12
3.03248e-12
5.04874e-12
-3.38336e-12
4.41497e-12
-8.68335e-12
3.30515e-12
-1.19425e-11
1.8861e-12
-1.26945e-11
6.07306e-13
-1.04533e-11
-4.75304e-12
-7.75689e-13
-3.65165e-12
-2.40807e-12
-7.87017e-12
-4.30885e-12
-9.29834e-12
-6.01827e-12
-8.38801e-12
-7.19622e-12
-5.37946e-12
-7.52989e-12
-7.61874e-13
-6.85313e-12
4.64445e-12
-5.38378e-12
9.82702e-12
-3.4419e-12
1.37572e-11
-1.19804e-12
1.5605e-11
1.10173e-12
1.51379e-11
3.22081e-12
1.24347e-11
4.9035e-12
7.80588e-12
5.77726e-12
2.1584e-12
5.77434e-12
-3.38075e-12
4.97306e-12
-7.88239e-12
3.63046e-12
-1.06002e-11
2.05612e-12
-1.11205e-11
6.68689e-13
-9.06618e-12
-4.08451e-12
-8.00769e-13
-2.85119e-12
-2.48631e-12
-6.18497e-12
-4.47931e-12
-7.30569e-12
-6.33767e-12
-6.53e-12
-7.63587e-12
-4.08161e-12
-8.06165e-12
-3.36429e-13
-7.51532e-12
4.09778e-12
-6.04524e-12
8.3566e-12
-3.89736e-12
1.1609e-11
-1.40284e-12
1.31101e-11
1.14144e-12
1.25933e-11
3.4346e-12
1.01412e-11
5.12123e-12
6.11892e-12
5.94899e-12
1.33032e-12
5.8809e-12
-3.31298e-12
5.01606e-12
-7.01786e-12
3.61848e-12
-9.20297e-12
2.02903e-12
-9.53139e-12
6.47305e-13
-7.68479e-12
-3.43737e-12
-7.69134e-13
-2.08237e-12
-2.40611e-12
-4.54835e-12
-4.36298e-12
-5.34917e-12
-6.20716e-12
-4.68617e-12
-7.5369e-12
-2.75222e-12
-8.06486e-12
1.91173e-13
-7.63445e-12
3.66702e-12
-6.27555e-12
6.99736e-12
-4.16604e-12
9.4991e-12
-1.6571e-12
1.06009e-11
8.96226e-13
1.00397e-11
3.14606e-12
7.89103e-12
4.74873e-12
4.51592e-12
5.51508e-12
5.63642e-13
5.41848e-12
-3.21671e-12
4.59919e-12
-6.19889e-12
3.30267e-12
-7.90678e-12
1.83854e-12
-8.06759e-12
5.80177e-13
-6.42677e-12
-2.85737e-12
-7.04265e-13
-1.37844e-12
-2.22132e-12
-3.03166e-12
-4.04988e-12
-3.52098e-12
-5.79049e-12
-2.94593e-12
-7.08835e-12
-1.45473e-12
-7.66564e-12
7.68092e-13
-7.35263e-12
3.35366e-12
-6.16452e-12
5.80889e-12
-4.26248e-12
7.59671e-12
-1.95355e-12
8.29157e-12
4.03571e-13
7.68219e-12
2.46109e-12
5.83316e-12
3.91992e-12
3.05674e-12
4.62019e-12
-1.36962e-13
4.55721e-12
-3.15407e-12
3.87149e-12
-5.51351e-12
2.77716e-12
-6.8128e-12
1.53891e-12
-6.82969e-12
4.79487e-13
-5.36771e-12
-2.37807e-12
-6.26964e-13
-7.51814e-13
-1.99153e-12
-1.66747e-12
-3.64605e-12
-1.86685e-12
-5.2385e-12
-1.35387e-12
-6.44763e-12
-2.45982e-13
-7.028e-12
1.34808e-12
-6.82297e-12
3.14824e-12
-5.84646e-12
4.832e-12
-4.23629e-12
5.98617e-12
-2.25925e-12
6.31416e-12
-2.25382e-13
5.64795e-12
1.55952e-12
4.0479e-12
2.83904e-12
1.77686e-12
3.48474e-12
-7.83024e-13
3.49399e-12
-3.16368e-12
2.99709e-12
-5.01696e-12
2.15445e-12
-5.97052e-12
1.19182e-12
-5.86744e-12
3.64559e-13
-4.54083e-12
-2.0137e-12
-5.52581e-13
-1.99591e-13
-1.76492e-12
-4.55525e-13
-3.23329e-12
-3.98895e-13
-4.66085e-12
7.32921e-14
-5.75015e-12
8.42923e-13
-6.30397e-12
1.90149e-12
-6.17817e-12
3.02205e-12
-5.41626e-12
4.0697e-12
-4.11944e-12
4.68896e-12
-2.51763e-12
4.71196e-12
-8.48235e-13
3.97817e-12
6.39171e-13
2.56011e-12
1.73228e-12
6.83366e-13
2.334e-12
-1.38512e-12
2.42143e-12
-3.25148e-12
2.12581e-12
-4.72172e-12
1.53509e-12
-5.38019e-12
8.52147e-13
-5.18489e-12
2.54701e-13
-3.94378e-12
-1.75921e-12
-4.92627e-13
2.92665e-13
-1.57024e-12
6.21676e-13
-2.85025e-12
8.80689e-13
-4.11522e-12
1.33784e-12
-5.06668e-12
1.79396e-12
-5.57169e-12
2.40609e-12
-5.47602e-12
2.92596e-12
-4.8974e-12
3.49066e-12
-3.88164e-12
3.67278e-12
-2.64556e-12
3.47547e-12
-1.33114e-12
2.66333e-12
-1.25133e-13
1.3537e-12
7.93327e-13
-2.35497e-13
1.35418e-12
-1.94638e-12
1.49119e-12
-3.38888e-12
1.38178e-12
-4.61272e-12
9.99001e-13
-4.99781e-12
5.67378e-13
-4.75368e-12
1.63989e-13
-3.54082e-12
-1.59544e-12
-4.61047e-13
7.53322e-13
-1.41039e-12
1.57059e-12
-2.49114e-12
1.96099e-12
-3.59703e-12
2.44329e-12
-4.39032e-12
2.58681e-12
-4.82271e-12
2.83804e-12
-4.66999e-12
2.77281e-12
-4.2228e-12
3.04304e-12
-3.41851e-12
2.86806e-12
-2.52195e-12
2.57847e-12
-1.52858e-12
1.66954e-12
-5.82311e-13
4.07008e-13
1.80117e-13
-9.98348e-13
6.90884e-13
-2.45757e-12
8.27403e-13
-3.52582e-12
8.74548e-13
-4.66028e-12
6.32659e-13
-4.75635e-12
3.86189e-13
-4.50765e-12
1.14696e-13
-3.26977e-12
-1.48097e-12
-4.93306e-13
1.24623e-12
-1.28402e-12
2.36086e-12
-2.16463e-12
2.84114e-12
-3.03609e-12
3.31429e-12
-3.63411e-12
3.18437e-12
-3.97769e-12
3.18116e-12
-3.59755e-12
2.39221e-12
-3.22616e-12
2.67119e-12
-2.53292e-12
2.17437e-12
-1.97056e-12
2.01565e-12
-1.22042e-12
9.1895e-13
-6.62309e-13
-1.51551e-13
2.76839e-14
-1.68878e-12
4.44262e-13
-2.87459e-12
5.48918e-13
-3.63092e-12
6.97753e-13
-4.80956e-12
5.13767e-13
-4.57282e-12
3.33161e-13
-4.32751e-12
1.14217e-13
-3.05129e-12
-1.36698e-12
-6.50717e-13
1.89654e-12
-1.17761e-12
2.88732e-12
-1.57033e-12
3.2334e-12
-2.31839e-12
4.06189e-12
-2.73956e-12
3.60508e-12
-3.00181e-12
3.44295e-12
-2.01919e-12
1.40913e-12
-1.79256e-12
2.44411e-12
-1.09359e-12
1.47495e-12
-9.94931e-13
1.91654e-12
-5.53419e-13
4.76985e-13
2.66788e-14
-7.32099e-13
5.37468e-13
-2.20002e-12
8.50291e-13
-3.18785e-12
7.65675e-13
-3.54674e-12
9.98602e-13
-5.04293e-12
6.66229e-13
-4.2409e-12
4.61911e-13
-4.12365e-12
1.95417e-13
-2.78526e-12
-1.17178e-12
-1.52403e-12
3.42018e-12
-1.18582e-12
2.54869e-12
-3.8876e-13
2.43592e-12
-1.04139e-12
4.7141e-12
-1.93284e-12
4.4961e-12
-1.77771e-12
3.28739e-12
2.12683e-13
-5.8169e-13
1.06319e-12
1.59317e-12
1.3871e-12
1.15062e-12
1.09126e-12
2.21195e-12
7.33202e-13
8.34619e-13
9.69595e-13
-9.68911e-13
1.74208e-12
-2.97292e-12
2.01258e-12
-3.45877e-12
1.23801e-12
-2.77258e-12
2.06965e-12
-5.875e-12
1.48174e-12
-3.6534e-12
7.58251e-13
-3.40059e-12
3.59833e-13
-2.38726e-12
-8.12127e-13
-4.61105e-12
8.03091e-12
-1.79935e-12
-2.63345e-13
3.03139e-12
-2.39515e-12
1.35541e-12
6.38974e-12
-2.15683e-12
8.00801e-12
-1.70507e-12
2.83529e-12
3.85649e-12
-6.14358e-12
5.65033e-12
-2.0101e-13
4.97684e-12
1.82377e-12
3.06487e-12
4.12359e-12
2.25454e-12
1.64462e-12
2.95887e-12
-1.67357e-12
5.55979e-12
-5.57417e-12
4.06946e-12
-1.96877e-12
2.24641e-12
-9.49847e-13
3.58468e-12
-7.2136e-12
5.98763e-12
-6.05668e-12
1.69797e-12
8.8874e-13
-1.48774e-12
7.98137e-13
-2.29997e-12
-1.58383e-11
2.38691e-11
-3.32035e-12
-1.27815e-11
1.61554e-11
-2.18711e-11
8.77121e-12
1.37738e-11
-9.08507e-12
2.58641e-11
-6.83482e-12
5.84867e-13
1.04084e-11
-2.3387e-11
1.4432e-11
-4.22477e-12
8.20662e-12
8.04901e-12
3.15073e-12
9.17932e-12
8.05545e-13
3.98963e-12
2.73856e-12
-3.60675e-12
1.21608e-11
-1.49966e-11
7.96944e-12
2.22241e-12
-5.58555e-12
1.2605e-11
1.49348e-12
-1.42928e-11
1.92067e-11
-2.37701e-11
3.27797e-12
1.68173e-11
-1.78576e-11
2.19335e-11
-2.01576e-11
-5.38212e-11
7.76903e-11
-9.82494e-12
-5.67778e-11
5.78745e-11
-8.95706e-11
3.17879e-11
3.98604e-11
-2.76966e-11
8.53485e-11
-2.28547e-11
-4.25701e-12
2.60876e-11
-7.23294e-11
3.10057e-11
-9.14295e-12
5.2824e-12
3.37723e-11
-2.44854e-13
1.47065e-11
-3.85657e-12
7.6013e-12
-6.21148e-13
-6.84221e-12
3.31678e-11
-4.87856e-11
2.76446e-11
7.7456e-12
-2.88127e-11
6.90622e-11
-7.56317e-12
-3.55424e-11
7.44828e-11
-1.05816e-10
1.16227e-11
7.96774e-11
-7.10207e-11
1.04577e-10
-9.11782e-11
-4.16535e-11
1.19344e-10
-5.84674e-13
-9.78468e-11
6.20594e-11
-1.52215e-10
4.37044e-11
5.82153e-11
-2.46028e-11
1.53656e-10
-2.11215e-11
-7.73847e-12
3.92618e-11
-1.32713e-10
4.76049e-11
-1.74863e-11
1.30613e-11
6.83158e-11
1.37534e-11
1.40144e-11
1.27107e-11
8.64393e-12
2.18792e-11
-1.60108e-11
5.82833e-11
-8.51898e-11
4.82386e-11
1.77902e-11
-1.67685e-11
1.34069e-10
8.13848e-12
-6.04494e-11
8.32817e-11
-1.80959e-10
2.01149e-11
1.42844e-10
-7.16953e-11
1.96387e-10
-1.62874e-10
6.74595e-11
5.18838e-11
2.43012e-11
-5.4689e-11
-3.24241e-11
-9.54901e-11
-2.02748e-11
4.60655e-11
4.01758e-11
9.32046e-11
4.69528e-11
-1.45159e-11
-4.50458e-12
-8.12558e-11
1.9693e-11
-4.16842e-11
4.22193e-11
4.57891e-11
1.29552e-11
4.3278e-11
3.35931e-11
-1.19943e-11
3.21963e-11
-1.46144e-11
1.16549e-11
-6.46487e-11
-9.92701e-13
3.04376e-11
6.67679e-11
6.63084e-11
3.45464e-11
-2.82282e-11
-7.21874e-11
-7.42258e-11
6.82149e-12
6.3835e-11
1.19025e-10
8.41838e-11
-4.38492e-11
2.82152e-11
2.36681e-11
1.3606e-12
-2.78349e-11
-4.22646e-11
-5.18654e-11
-8.13317e-12
1.19335e-11
1.62671e-11
6.88037e-11
3.00416e-11
-2.82908e-11
1.77639e-11
-6.89785e-11
1.49516e-11
-3.88724e-11
5.067e-11
1.00704e-11
8.88319e-11
5.11579e-12
1.77362e-11
5.91011e-11
1.64939e-11
-1.33724e-11
3.19066e-12
-5.13458e-11
2.06417e-11
1.29863e-11
2.84564e-11
5.84934e-11
1.65404e-11
-1.63124e-11
-2.46862e-11
-3.29994e-11
1.67454e-11
2.24031e-11
4.3335e-11
5.75941e-11
-5.14321e-13
1.28819e-11
1.07859e-11
2.10845e-12
-1.7062e-11
-1.85029e-11
-3.12545e-11
-8.31337e-12
1.74345e-12
3.99035e-11
2.05864e-11
3.19178e-11
-2.03056e-11
1.01191e-11
-4.71802e-11
1.14119e-12
-2.98949e-11
1.17931e-11
-5.81916e-13
4.50182e-12
1.24068e-11
3.58796e-11
2.7723e-11
2.19968e-11
5.10155e-13
-6.0906e-12
-2.32585e-11
-2.88976e-12
9.7853e-12
2.30454e-11
3.25581e-11
8.81737e-12
-2.08452e-12
-1.02156e-11
-1.39665e-11
-1.09042e-11
2.30915e-11
6.25507e-12
4.04347e-11
5.7407e-12
9.67297e-12
1.1125e-12
3.1913e-12
-1.05808e-11
-9.89359e-12
-1.81701e-11
9.80214e-13
-9.1308e-12
2.48252e-11
-3.25899e-12
2.32313e-11
-1.87121e-11
4.54295e-12
-2.84922e-11
-5.45604e-12
-1.98963e-11
-2.40868e-12
-3.62959e-12
2.55374e-12
7.4441e-12
1.33604e-11
1.69161e-11
7.51235e-12
6.35795e-12
-1.08837e-11
-4.86267e-12
-7.83461e-12
6.73607e-12
9.43915e-12
1.52842e-11
9.90194e-13
6.36434e-12
-1.75444e-11
4.56794e-12
-1.1301e-11
1.6848e-11
5.66234e-12
2.34713e-11
1.1403e-11
2.87644e-12
-1.7643e-12
1.96478e-12
-9.66949e-12
-1.03378e-12
-1.51719e-11
3.15269e-12
-1.33176e-11
1.17866e-11
-1.18933e-11
1.05405e-11
-1.74663e-11
2.02658e-12
-1.99787e-11
-4.28928e-12
-1.35807e-11
-5.17222e-12
-2.74691e-12
-3.63828e-12
5.90992e-12
1.27834e-12
1.19993e-11
-5.98406e-13
8.23451e-12
-8.62986e-12
3.16863e-12
-8.84524e-12
6.95134e-12
-4.08676e-12
1.05256e-11
-6.05803e-12
8.33554e-12
-1.0834e-11
9.34384e-12
-8.81933e-12
1.48333e-11
-2.42634e-12
1.70783e-11
8.97666e-12
1.16832e-12
-2.93291e-12
1.055e-12
-9.5565e-12
6.32989e-14
-1.41805e-11
1.81477e-12
-1.50694e-11
4.87258e-12
-1.49514e-11
3.63545e-12
-1.62294e-11
-1.1154e-12
-1.5228e-11
-4.97916e-12
-9.7172e-12
-6.01866e-12
-1.70761e-12
-5.44282e-12
5.3339e-12
-3.26377e-12
9.82011e-12
-4.12989e-12
9.1005e-12
-7.82534e-12
6.86397e-12
-8.55335e-12
7.67926e-12
-6.99293e-12
8.96516e-12
-7.58731e-12
8.92986e-12
-8.56831e-12
1.03248e-11
-6.64697e-12
1.2912e-11
-2.3463e-12
1.27776e-11
6.63036e-12
4.64659e-13
-3.3978e-12
3.75323e-13
-9.46741e-12
-1.01832e-13
-1.37036e-11
3.24767e-13
-1.54962e-11
1.02746e-12
-1.56543e-11
-1.62188e-13
-1.504e-11
-2.88021e-12
-1.25102e-11
-5.10829e-12
-7.48928e-12
-5.85027e-12
-9.65783e-13
-5.57585e-12
5.05936e-12
-4.65045e-12
8.8946e-12
-5.00129e-12
9.45125e-12
-6.57963e-12
8.44223e-12
-7.13396e-12
8.23354e-12
-6.72396e-12
8.55512e-12
-6.78327e-12
8.98914e-12
-6.55349e-12
1.0095e-11
-4.69296e-12
1.10514e-11
-1.72343e-12
9.80806e-12
4.90693e-12
1.59097e-13
-3.55701e-12
4.30875e-14
-9.35152e-12
-2.58799e-13
-1.34018e-11
-3.39577e-13
-1.54156e-11
-4.69824e-13
-1.55241e-11
-1.43784e-12
-1.40721e-11
-3.08243e-12
-1.08657e-11
-4.38489e-12
-6.1869e-12
-4.90712e-12
-4.43624e-13
-4.90341e-12
5.05559e-12
-4.56969e-12
8.56083e-12
-4.6711e-12
9.55262e-12
-5.27306e-12
9.04415e-12
-5.58169e-12
8.54215e-12
-5.48697e-12
8.46039e-12
-5.29758e-12
8.79973e-12
-4.67367e-12
9.4711e-12
-3.20098e-12
9.57872e-12
-1.22921e-12
7.8363e-12
3.67772e-12
3.62874e-14
-2.01312e-14
-1.41524e-13
-2.38114e-13
-4.05485e-13
-8.71352e-13
-1.71198e-12
-2.84173e-12
-3.75967e-12
-4.15834e-12
-4.18514e-12
-4.24543e-12
-4.45927e-12
-4.59819e-12
-4.53169e-12
-4.23094e-12
-3.54939e-12
-2.40541e-12
-1.02065e-12
)
;

boundaryField
{
    top
    {
        type            calculated;
        value           nonuniform List<scalar> 
20
(
-3.59333e-12
-9.29513e-12
-1.32805e-11
-1.5319e-11
-1.53568e-11
-1.36062e-11
-1.00251e-11
-5.05716e-12
4.743e-13
5.45424e-12
8.58763e-12
9.61289e-12
9.25799e-12
8.68106e-12
8.39388e-12
8.49899e-12
8.78955e-12
8.43474e-12
6.45154e-12
2.65706e-12
)
;
    }
    left
    {
        type            calculated;
        value           uniform 0;
    }
    right
    {
        type            calculated;
        value           uniform 0;
    }
    bottom
    {
        type            calculated;
        value           nonuniform List<scalar> 
20
(
0
-1.2326e-32
0
0
0
0
0
0
3.9443e-31
0
0
0
0
0
0
0
-4.93038e-32
0
0
0
)
;
    }
    front
    {
        type            empty;
        value           nonuniform List<scalar> 0();
    }
    back
    {
        type            empty;
        value           nonuniform List<scalar> 0();
    }
    frontAndBack
    {
        type            empty;
        value           nonuniform List<scalar> 0();
    }
}


// ************************************************************************* //
