/*--------------------------------*- C++ -*----------------------------------*\
  =========                 |
  \\      /  F ield         | OpenFOAM: The Open Source CFD Toolbox
   \\    /   O peration     | Website:  https://openfoam.org
    \\  /    A nd           | Version:  10
     \\/     M anipulation  |
\*---------------------------------------------------------------------------*/
FoamFile
{
    format      ascii;
    class       volVectorField;
    location    "0.05";
    object      U;
}
// * * * * * * * * * * * * * * * * * * * * * * * * * * * * * * * * * * * * * //

dimensions      [0 1 -1 0 0 0 0];

internalField   nonuniform List<vector> 
800
(
(-5.75977e-07 6.2503e-07 0)
(3.68023e-05 -9.16337e-06 0)
(0.000112592 -1.74818e-05 0)
(0.00020071 -1.81575e-05 0)
(0.000273922 -1.25996e-05 0)
(0.000312188 -4.11132e-06 0)
(0.000304019 6.22613e-06 0)
(0.000249979 1.32502e-05 0)
(0.000158729 2.04252e-05 0)
(4.33773e-05 2.34079e-05 0)
(-7.81691e-05 2.21211e-05 0)
(-0.000189906 1.92657e-05 0)
(-0.000277059 1.20736e-05 0)
(-0.000327466 6.17618e-06 0)
(-0.000332165 -4.47218e-06 0)
(-0.000289047 -1.44785e-05 0)
(-0.000209315 -2.0675e-05 0)
(-0.000117244 -1.57854e-05 0)
(-3.826e-05 -1.09577e-05 0)
(1.15175e-06 9.73499e-07 0)
(1.02031e-05 -3.70629e-05 0)
(0.000121763 -0.000114471 0)
(0.000300951 -0.000160173 0)
(0.000494113 -0.000154786 0)
(0.000649266 -0.000105819 0)
(0.000727493 -2.97817e-05 0)
(0.00070348 6.40999e-05 0)
(0.000575327 0.00014022 0)
(0.000363858 0.00020083 0)
(0.000100719 0.000228435 0)
(-0.000177717 0.000224355 0)
(-0.00043631 0.000193711 0)
(-0.000641094 0.000133324 0)
(-0.000759469 5.5238e-05 0)
(-0.000771754 -3.67396e-05 0)
(-0.000683991 -0.000115275 0)
(-0.00051913 -0.000166463 0)
(-0.000314469 -0.000164071 0)
(-0.000125391 -0.000122562 0)
(-1.00761e-05 -3.76665e-05 0)
(1.7861e-05 -0.000118703 0)
(0.000189273 -0.000302646 0)
(0.000442358 -0.000386202 0)
(0.000702284 -0.000360787 0)
(0.000903905 -0.000240516 0)
(0.000996296 -5.7632e-05 0)
(0.000960548 0.000152561 0)
(0.00079077 0.000345131 0)
(0.000503721 0.000486826 0)
(0.000144095 0.000556017 0)
(-0.000240917 0.000550574 0)
(-0.000597197 0.000473773 0)
(-0.000875752 0.000329844 0)
(-0.00103757 0.000134404 0)
(-0.00106163 -7.95321e-05 0)
(-0.00095016 -0.000263612 0)
(-0.000730975 -0.000385252 0)
(-0.000455088 -0.000404282 0)
(-0.000192917 -0.000315896 0)
(-1.91913e-05 -0.000121561 0)
(2.72643e-05 -0.000233237 0)
(0.000241889 -0.000549563 0)
(0.000542579 -0.00067095 0)
(0.000849385 -0.000616583 0)
(0.00108553 -0.000402625 0)
(0.00119081 -8.23273e-05 0)
(0.00113416 0.000270728 0)
(0.000922807 0.000601252 0)
(0.000587054 0.000843244 0)
(0.000166692 0.000967675 0)
(-0.000283045 0.000960862 0)
(-0.000699459 0.000824621 0)
(-0.001026 0.000574909 0)
(-0.00122263 0.000241837 0)
(-0.00126315 -0.000121847 0)
(-0.00114068 -0.00044535 0)
(-0.000884695 -0.000659058 0)
(-0.000555976 -0.000708167 0)
(-0.000239842 -0.000567208 0)
(-2.47991e-05 -0.000235774 0)
(2.94915e-05 -0.000368347 0)
(0.000264449 -0.000829575 0)
(0.000599795 -0.000999741 0)
(0.000945827 -0.000908434 0)
(0.00120625 -0.000584287 0)
(0.00131806 -0.000106233 0)
(0.00124982 0.000420488 0)
(0.00101084 0.00089383 0)
(0.00063867 0.00124464 0)
(0.000178793 0.00142863 0)
(-0.000311315 0.00141965 0)
(-0.000765706 0.00121869 0)
(-0.00112548 0.00085339 0)
(-0.00134643 0.000372369 0)
(-0.00139616 -0.000162035 0)
(-0.00126754 -0.000644187 0)
(-0.000990057 -0.000969511 0)
(-0.000625879 -0.00105724 0)
(-0.000271175 -0.000859246 0)
(-2.77399e-05 -0.000370165 0)
(2.71488e-05 -0.000511121 0)
(0.000276215 -0.00113245 0)
(0.000639604 -0.00136309 0)
(0.00100495 -0.00122079 0)
(0.00126782 -0.000771492 0)
(0.0013756 -0.000127935 0)
(0.00130443 0.000580846 0)
(0.00105527 0.00121142 0)
(0.000664496 0.00167371 0)
(0.000183595 0.00191952 0)
(-0.000327932 0.00190706 0)
(-0.000801584 0.00163856 0)
(-0.00117845 0.00115426 0)
(-0.00141513 0.000519486 0)
(-0.00147486 -0.00019963 0)
(-0.0013441 -0.00085318 0)
(-0.00105401 -0.00130221 0)
(-0.000670826 -0.00143558 0)
(-0.000293939 -0.00117925 0)
(-3.11518e-05 -0.000518794 0)
(3.17513e-05 -0.000660386 0)
(0.000293369 -0.00145363 0)
(0.000661258 -0.00173852 0)
(0.00102404 -0.00153725 0)
(0.00128523 -0.00095565 0)
(0.00138612 -0.000142322 0)
(0.00130624 0.000745145 0)
(0.00105617 0.00153615 0)
(0.000664995 0.00211466 0)
(0.000180428 0.00242368 0)
(-0.000333337 0.00240591 0)
(-0.000807499 0.00206754 0)
(-0.0011891 0.0014679 0)
(-0.001425 0.000669332 0)
(-0.0014811 -0.000231984 0)
(-0.00135387 -0.00106526 0)
(-0.00106648 -0.00164261 0)
(-0.000683052 -0.00182605 0)
(-0.000301638 -0.00151361 0)
(-3.26116e-05 -0.000676057 0)
(2.88291e-05 -0.000812468 0)
(0.000284147 -0.00177919 0)
(0.00064065 -0.00210505 0)
(0.000984457 -0.00184383 0)
(0.00122765 -0.00113084 0)
(0.00131797 -0.000146928 0)
(0.00123677 0.000911889 0)
(0.000995885 0.00185232 0)
(0.000622089 0.00254882 0)
(0.000163731 0.00291484 0)
(-0.000321822 0.0028956 0)
(-0.000784218 0.0024973 0)
(-0.00115296 0.0017738 0)
(-0.00137339 0.000811468 0)
(-0.00141735 -0.000273127 0)
(-0.00128732 -0.00127023 0)
(-0.00101801 -0.00197286 0)
(-0.000656028 -0.00220915 0)
(-0.000291053 -0.00184528 0)
(-3.18039e-05 -0.000832798 0)
(3.243e-05 -0.000958366 0)
(0.000260937 -0.00208065 0)
(0.000570021 -0.00244423 0)
(0.000875154 -0.00212535 0)
(0.00109447 -0.00129037 0)
(0.00117844 -0.000148722 0)
(0.00111103 0.00106537 0)
(0.000893965 0.00214986 0)
(0.000552907 0.00295206 0)
(0.00014093 0.00336601 0)
(-0.000290697 0.00334529 0)
(-0.00069152 0.00289554 0)
(-0.00101247 0.00205255 0)
(-0.00120372 0.000939598 0)
(-0.00124198 -0.000314086 0)
(-0.00113471 -0.00145356 0)
(-0.000901796 -0.00227156 0)
(-0.000583679 -0.00256289 0)
(-0.000257964 -0.00215435 0)
(-2.72565e-05 -0.000977634 0)
(2.43808e-05 -0.00108313 0)
(0.000198806 -0.00232692 0)
(0.000434727 -0.00272667 0)
(0.000672788 -0.00236443 0)
(0.000857305 -0.00143602 0)
(0.000943766 -0.000160716 0)
(0.00089708 0.00119507 0)
(0.000714541 0.00241385 0)
(0.000431182 0.00330034 0)
(9.22396e-05 0.00375519 0)
(-0.000264065 0.00372937 0)
(-0.00059172 0.00322497 0)
(-0.000851596 0.00229084 0)
(-0.00100064 0.00103782 0)
(-0.00101769 -0.000347979 0)
(-0.000911424 -0.00161681 0)
(-0.000714232 -0.00251937 0)
(-0.000464406 -0.0028607 0)
(-0.000208069 -0.00241657 0)
(-2.28419e-05 -0.00110189 0)
(1.3248e-05 -0.00116815 0)
(0.00011585 -0.00249618 0)
(0.000257639 -0.00292551 0)
(0.000418131 -0.0025508 0)
(0.000564225 -0.00156633 0)
(0.000644909 -0.000187224 0)
(0.000622269 0.00129327 0)
(0.000494426 0.00261987 0)
(0.000286694 0.00357491 0)
(3.55885e-05 0.0040612 0)
(-0.000226104 0.00403248 0)
(-0.00046797 0.00348161 0)
(-0.000653879 0.00247066 0)
(-0.000749682 0.00110054 0)
(-0.000736118 -0.000399426 0)
(-0.000631762 -0.00176283 0)
(-0.000472366 -0.00271676 0)
(-0.000296769 -0.00307595 0)
(-0.000144522 -0.00259892 0)
(-2.49341e-05 -0.0012002 0)
(6.32369e-06 -0.00121118 0)
(4.39226e-05 -0.00258233 0)
(9.56503e-05 -0.00303239 0)
(0.000162261 -0.00266768 0)
(0.000232768 -0.00165751 0)
(0.000281146 -0.000214329 0)
(0.000280235 0.0013488 0)
(0.000216683 0.00275207 0)
(0.000102658 0.00375737 0)
(-3.45745e-05 0.00426141 0)
(-0.000172413 0.00422874 0)
(-0.000298071 0.00364855 0)
(-0.00038631 0.00257422 0)
(-0.000414874 0.00112316 0)
(-0.000376056 -0.000465055 0)
(-0.000289851 -0.0018764 0)
(-0.000197685 -0.00284864 0)
(-0.00011181 -0.00320378 0)
(-3.6999e-05 -0.00269491 0)
(1.12379e-06 -0.00125146 0)
(-2.159e-06 -0.00121405 0)
(-3.79718e-05 -0.00258341 0)
(-8.71383e-05 -0.00304347 0)
(-0.00012496 -0.00269162 0)
(-0.000136922 -0.00168958 0)
(-0.000118631 -0.000237244 0)
(-0.000102213 0.00136452 0)
(-0.000102885 0.00280028 0)
(-0.000109116 0.00382623 0)
(-0.000118847 0.00433495 0)
(-0.000123851 0.00429288 0)
(-0.00011429 0.00369586 0)
(-8.41588e-05 0.00258388 0)
(-3.36779e-05 0.00109579 0)
(3.03866e-05 -0.00052841 0)
(8.47709e-05 -0.00194114 0)
(0.000106286 -0.00289386 0)
(7.98458e-05 -0.003225 0)
(3.78138e-05 -0.00270854 0)
(6.93882e-06 -0.00124748 0)
(-1.31844e-05 -0.00117203 0)
(-0.000122053 -0.00249349 0)
(-0.000280947 -0.00294179 0)
(-0.000435374 -0.00261664 0)
(-0.000530042 -0.00166353 0)
(-0.000543011 -0.000261556 0)
(-0.000502348 0.00134037 0)
(-0.000435256 0.00276164 0)
(-0.000336038 0.00377368 0)
(-0.000214261 0.00427548 0)
(-8.04841e-05 0.00422227 0)
(5.95457e-05 0.00361624 0)
(0.000195387 0.00249882 0)
(0.000319108 0.00101284 0)
(0.000412487 -0.00059152 0)
(0.000438025 -0.0019494 0)
(0.000375861 -0.00284537 0)
(0.000249919 -0.00313532 0)
(0.000113588 -0.00263281 0)
(1.29008e-05 -0.00120338 0)
(-2.31167e-05 -0.00108451 0)
(-0.000202037 -0.00231363 0)
(-0.000457983 -0.00272563 0)
(-0.000717043 -0.00244028 0)
(-0.000901208 -0.00157225 0)
(-0.00096957 -0.000270049 0)
(-0.000914005 0.00126123 0)
(-0.000761331 0.00262805 0)
(-0.000549067 0.003599 0)
(-0.000304625 0.00408345 0)
(-4.6551e-05 0.00402021 0)
(0.000217065 0.00341517 0)
(0.000463513 0.0023221 0)
(0.0006623 0.000877073 0)
(0.000766623 -0.000644074 0)
(0.000752033 -0.00190673 0)
(0.000628126 -0.00271008 0)
(0.00041745 -0.00295192 0)
(0.000182808 -0.00246543 0)
(1.68099e-05 -0.00112445 0)
(-2.9435e-05 -0.000959437 0)
(-0.000261734 -0.00205517 0)
(-0.000591284 -0.00242114 0)
(-0.0009233 -0.00217864 0)
(-0.00117504 -0.00141489 0)
(-0.00129455 -0.000245386 0)
(-0.00124402 0.00113543 0)
(-0.00103692 0.00240222 0)
(-0.000738969 0.00331874 0)
(-0.000392914 0.00377358 0)
(-2.01483e-05 0.00369854 0)
(0.000350157 0.00310609 0)
(0.000683856 0.00205851 0)
(0.000934102 0.000702586 0)
(0.00103817 -0.000672777 0)
(0.000978459 -0.00180922 0)
(0.000792374 -0.00251087 0)
(0.000522065 -0.00269159 0)
(0.000232973 -0.00222732 0)
(2.48072e-05 -0.00101465 0)
(-3.2801e-05 -0.000810162 0)
(-0.000295469 -0.0017428 0)
(-0.000668948 -0.00205726 0)
(-0.0010515 -0.00185682 0)
(-0.00135714 -0.0012014 0)
(-0.00151739 -0.000191334 0)
(-0.00148115 0.000995818 0)
(-0.00125537 0.00211847 0)
(-0.000901386 0.00295777 0)
(-0.000471842 0.003362 0)
(-6.72737e-06 0.00327407 0)
(0.000448012 0.00271113 0)
(0.000841836 0.00173585 0)
(0.00110842 0.000519297 0)
(0.0011971 -0.000680064 0)
(0.00110826 -0.00166195 0)
(0.000879866 -0.00225935 0)
(0.000569974 -0.00238565 0)
(0.000254466 -0.00195438 0)
(2.80236e-05 -0.000884777 0)
(-3.38548e-05 -0.000650185 0)
(-0.000304469 -0.00140569 0)
(-0.000692357 -0.00166146 0)
(-0.00109924 -0.00149415 0)
(-0.00143255 -0.000949902 0)
(-0.00161608 -0.000114517 0)
(-0.00160455 0.000869919 0)
(-0.00139356 0.00181718 0)
(-0.00101844 0.00253975 0)
(-0.000539734 0.00287761 0)
(-2.09745e-05 0.00277884 0)
(0.00047813 0.00226056 0)
(0.000890337 0.00139223 0)
(0.00115026 0.000346345 0)
(0.00122514 -0.000671054 0)
(0.00112249 -0.00149036 0)
(0.000881505 -0.001979 0)
(0.000564344 -0.0020624 0)
(0.000248718 -0.001672 0)
(2.61555e-05 -0.000750831 0)
(-3.21171e-05 -0.000491596 0)
(-0.000293266 -0.00106943 0)
(-0.000671371 -0.00126141 0)
(-0.00107259 -0.00111914 0)
(-0.00140749 -0.000683392 0)
(-0.0016043 -1.75374e-05 0)
(-0.00161651 0.000770679 0)
(-0.00143122 0.00152879 0)
(-0.00107118 0.00210508 0)
(-0.000592839 0.00236597 0)
(-6.97743e-05 0.00225816 0)
(0.000427099 0.00179769 0)
(0.000825424 0.00105799 0)
(0.0010682 0.000186066 0)
(0.00113267 -0.000652621 0)
(0.00103172 -0.00131756 0)
(0.000806089 -0.00170403 0)
(0.000512915 -0.00175156 0)
(0.000223892 -0.00140389 0)
(2.28179e-05 -0.000626189 0)
(-2.89626e-05 -0.00034336 0)
(-0.000269407 -0.000751817 0)
(-0.000620931 -0.000879902 0)
(-0.000997374 -0.000757474 0)
(-0.00131741 -0.000417846 0)
(-0.00151559 9.45049e-05 0)
(-0.00154535 0.000696253 0)
(-0.00139045 0.00127085 0)
(-0.00106947 0.00169747 0)
(-0.000632209 0.00187598 0)
(-0.000148765 0.00175915 0)
(0.000308613 0.00136093 0)
(0.000671454 0.000748893 0)
(0.000891587 3.93535e-05 0)
(0.00095216 -0.000635092 0)
(0.000868567 -0.00116399 0)
(0.000678422 -0.00146143 0)
(0.00043034 -0.00147801 0)
(0.000186102 -0.00116966 0)
(1.81957e-05 -0.000519252 0)
(-2.54527e-05 -0.00021009 0)
(-0.000240569 -0.000463072 0)
(-0.000557464 -0.000530502 0)
(-0.000899639 -0.000422792 0)
(-0.0011943 -0.000165446 0)
(-0.00138299 0.000211644 0)
(-0.0014237 0.000645049 0)
(-0.00130146 0.00105329 0)
(-0.00103252 0.00134329 0)
(-0.000659543 0.00144332 0)
(-0.00024326 0.00131602 0)
(0.00015273 0.000973712 0)
(0.000468332 0.000473792 0)
(0.000664112 -9.53115e-05 0)
(0.000726312 -0.000629099 0)
(0.000670139 -0.00104457 0)
(0.000526442 -0.00126662 0)
(0.000333695 -0.00125687 0)
(0.000142801 -0.000980318 0)
(1.30611e-05 -0.000434649 0)
(-2.21735e-05 -9.24828e-05 0)
(-0.000212815 -0.000206076 0)
(-0.000493801 -0.000218428 0)
(-0.000798853 -0.000120534 0)
(-0.00106335 6.5473e-05 0)
(-0.00123595 0.000326159 0)
(-0.00128109 0.000613475 0)
(-0.00118841 0.000880156 0)
(-0.000974209 0.00105283 0)
(-0.000672487 0.00108485 0)
(-0.000333344 0.000944973 0)
(-5.54026e-06 0.000645796 0)
(0.000260039 0.000236142 0)
(0.000432412 -0.000220512 0)
(0.00049776 -0.000639394 0)
(0.000471086 -0.000966033 0)
(0.000375387 -0.00112419 0)
(0.000238203 -0.00109333 0)
(0.000100965 -0.00083871 0)
(8.26957e-06 -0.000373181 0)
(-1.91345e-05 1.07301e-05 0)
(-0.000190254 2.09739e-05 0)
(-0.000436423 5.58349e-05 0)
(-0.000704713 0.000148735 0)
(-0.000937793 0.000270476 0)
(-0.00109019 0.000433398 0)
(-0.00113198 0.000593961 0)
(-0.00106018 0.00074823 0)
(-0.000894651 0.000823953 0)
(-0.000659742 0.000802653 0)
(-0.000396399 0.000648627 0)
(-0.000133061 0.000378865 0)
(8.50538e-05 3.51734e-05 0)
(0.000236105 -0.000337992 0)
(0.000300522 -0.000664037 0)
(0.000299028 -0.000928187 0)
(0.000245961 -0.00102974 0)
(0.000156329 -0.00098513 0)
(6.65427e-05 -0.000741196 0)
(4.07985e-06 -0.000332356 0)
(-1.79821e-05 0.000107357 0)
(-0.000174652 0.000225972 0)
(-0.000384058 0.000295682 0)
(-0.000615636 0.000386358 0)
(-0.000816519 0.000444622 0)
(-0.000944929 0.000528643 0)
(-0.000971207 0.00057009 0)
(-0.000905118 0.000646568 0)
(-0.000777225 0.000642187 0)
(-0.000598344 0.000589487 0)
(-0.000405853 0.00042158 0)
(-0.000200582 0.000176368 0)
(-2.73519e-05 -0.000129937 0)
(0.000107153 -0.000448523 0)
(0.000160724 -0.000698166 0)
(0.00017694 -0.000926775 0)
(0.000157691 -0.000972861 0)
(0.000100549 -0.000923184 0)
(4.76357e-05 -0.000679146 0)
(1.33344e-06 -0.000307483 0)
(-1.57394e-05 0.000186995 0)
(-0.000170928 0.000390444 0)
(-0.000333827 0.000479698 0)
(-0.000523049 0.00057681 0)
(-0.000683563 0.000568847 0)
(-0.00078407 0.000599235 0)
(-0.000772909 0.000503175 0)
(-0.000688254 0.000552555 0)
(-0.000586042 0.000471713 0)
(-0.000449131 0.000420615 0)
(-0.000323882 0.000209294 0)
(-0.000180698 -3.03163e-05 0)
(-6.21472e-05 -0.00029668 0)
(6.73559e-05 -0.0005571 0)
(9.80128e-05 -0.000734483 0)
(0.00012471 -0.000948489 0)
(0.000127343 -0.00093134 0)
(7.86849e-05 -0.000883157 0)
(4.85422e-05 -0.000634654 0)
(-2.53151e-06 -0.000290957 0)
(-3.44785e-05 0.000363637 0)
(-0.000180982 0.000583007 0)
(-0.000269345 0.00068019 0)
(-0.000402288 0.000821698 0)
(-0.000509374 0.000798029 0)
(-0.000591767 0.000749257 0)
(-0.000508877 0.000514091 0)
(-0.000368842 0.000603989 0)
(-0.000288721 0.000482341 0)
(-0.000200706 0.000493691 0)
(-0.00016625 0.000244017 0)
(-4.18801e-05 -2.72822e-05 0)
(4.84683e-05 -0.000318815 0)
(0.000163674 -0.000524271 0)
(0.000140687 -0.000625318 0)
(0.000171472 -0.000914423 0)
(0.000177362 -0.000821689 0)
(9.93611e-05 -0.000785058 0)
(7.27976e-05 -0.000527968 0)
(7.4801e-06 -0.000226141 0)
(-9.75712e-05 0.000360866 0)
(-0.000256556 0.000275526 0)
(-0.000152573 0.00029757 0)
(-0.000144686 0.000651778 0)
(-0.000276353 0.000645906 0)
(-0.000366582 0.00044341 0)
(-0.000121602 -0.000147917 0)
(0.000118655 0.000118068 0)
(0.000200026 5.39622e-05 0)
(0.000235377 0.000214836 0)
(0.000134052 -0.000191019 0)
(0.000150226 -0.000522091 0)
(0.000231353 -0.000872418 0)
(0.000387234 -0.000917539 0)
(0.000255649 -0.000917365 0)
(0.000281055 -0.00136535 0)
(0.000317205 -0.00114555 0)
(0.000170733 -0.000945139 0)
(0.000121562 -0.000605745 0)
(-3.73553e-06 -0.000441798 0)
(-0.000481316 0.00173234 0)
(-0.000525558 0.000797791 0)
(8.30366e-05 0.000580952 0)
(0.000428733 0.00192296 0)
(-7.66847e-05 0.0021377 0)
(-0.000354448 0.00127815 0)
(0.000176429 -0.000352306 0)
(0.000802919 0.000630816 0)
(0.000927794 0.000992409 0)
(0.000672887 0.00137027 0)
(0.000462222 0.000798309 0)
(0.000413624 4.20108e-05 0)
(0.000666529 -0.00037981 0)
(0.000803836 -0.000111956 0)
(0.000522791 0.000356184 0)
(0.00053514 -0.00109013 0)
(0.000738778 -0.00104262 0)
(0.000523132 0.000176727 0)
(8.29178e-05 0.000616881 0)
(-0.000142266 -0.000551623 0)
(-0.0015383 0.00254761 0)
(-0.00148495 -0.00197794 0)
(0.000935561 -0.00310792 0)
(0.00238594 0.000909347 0)
(-0.000148579 0.002128 0)
(-0.00136812 -0.000805215 0)
(0.000154757 -0.00367011 0)
(0.00205958 -0.0014722 0)
(0.00198359 -0.000233395 0)
(0.000910546 0.000173979 0)
(0.000515171 -0.000579507 0)
(0.000142612 -0.00168634 0)
(0.00119574 -0.00324777 0)
(0.00154009 -0.00120391 0)
(0.000488501 -0.000128102 0)
(-0.000295481 -0.003184 0)
(0.00157376 -0.00424238 0)
(0.00164606 0.00100618 0)
(-0.00121534 0.00176289 0)
(-0.00139792 -0.00260584 0)
(-0.00485083 0.0060661 0)
(-0.00529399 -0.000693 0)
(0.0038552 -0.00267243 0)
(0.00822775 0.0041927 0)
(-0.000125142 0.00684926 0)
(-0.00383103 0.00139467 0)
(-0.000502845 -0.00283923 0)
(0.00499188 0.00140332 0)
(0.00279502 0.00370762 0)
(0.00109499 0.00339235 0)
(-0.000476284 0.0029861 0)
(-0.000428308 0.00177276 0)
(0.00200524 0.00022976 0)
(0.00475318 0.00274451 0)
(-7.72725e-05 0.00585914 0)
(-0.00241773 -0.000440485 0)
(0.00499461 -0.00237078 0)
(0.00625825 0.00517414 0)
(-0.00481513 0.00717211 0)
(-0.00548088 -0.00264548 0)
(-0.00373544 0.0101936 0)
(-0.00417199 -0.0113535 0)
(0.00553905 -0.017804 0)
(0.00995251 0.00444055 0)
(0.000647956 0.0101539 0)
(-0.00339445 -0.00204764 0)
(-0.000521081 -0.0138835 0)
(0.00924149 -0.00300119 0)
(0.00348393 0.00150648 0)
(0.00479912 -0.000654745 0)
(-0.000181233 -0.00131563 0)
(0.00523689 -0.00316594 0)
(0.00510496 -0.0117575 0)
(0.0105355 -0.00255769 0)
(0.00224655 0.00549891 0)
(-0.000874162 -0.00763526 0)
(0.00811668 -0.020998 0)
(0.00689614 0.0102289 0)
(-0.00311396 0.0110833 0)
(-0.00739731 -0.0170176 0)
(0.0081052 0.0346862 0)
(0.00485254 -0.0283819 0)
(0.000954588 -0.0439048 0)
(-0.00121701 0.0186244 0)
(0.000364061 0.0464757 0)
(0.00499117 -0.00279509 0)
(0.00297633 -0.0377679 0)
(0.00549042 -0.00839216 0)
(0.00573026 0.0225962 0)
(0.00543552 0.0100001 0)
(0.00221325 0.0014526 0)
(0.0064584 -0.00765748 0)
(0.00439214 -0.0250833 0)
(0.00532948 0.00963476 0)
(0.00436191 0.0401544 0)
(0.0038394 -0.0194754 0)
(7.16666e-05 -0.0530191 0)
(-0.00142287 0.0388135 0)
(0.00862765 0.05505 0)
(0.0097818 -0.0476841 0)
(0.00418624 0.0057589 0)
(0.00218138 -0.00782869 0)
(-0.0041832 -0.0143404 0)
(-0.00450994 0.0062541 0)
(0.000649565 0.0173379 0)
(0.0038361 -0.00426662 0)
(0.00397467 -0.0144143 0)
(0.00373435 -0.00854084 0)
(0.00703849 0.0058568 0)
(0.0138684 0.00600157 0)
(0.00946282 0.00413859 0)
(0.00301807 -0.00162933 0)
(0.00216557 -0.0118346 0)
(0.00285778 0.00501614 0)
(0.00395897 0.013604 0)
(0.00352743 -0.000884245 0)
(-0.000594892 -0.00644913 0)
(-2.09567e-05 0.00962966 0)
(0.00480169 0.0171492 0)
(0.00641454 0.000660913 0)
(0.00226535 0.00535921 0)
(0.00115423 -0.00479768 0)
(-0.00191954 -0.00937026 0)
(-0.00302548 0.00208947 0)
(0.00299667 0.00958409 0)
(0.00737925 -0.0053638 0)
(0.00427332 -0.0133391 0)
(0.00101182 -0.00764925 0)
(0.000830793 0.00150826 0)
(0.00165091 0.00222973 0)
(0.00407795 0.00880025 0)
(0.00565494 -0.0013923 0)
(0.00135369 -0.00903802 0)
(-0.000965865 0.00260129 0)
(0.00201082 0.0115354 0)
(0.00285672 -0.00259912 0)
(5.49154e-05 -0.00711922 0)
(-0.00166383 0.00683462 0)
(-0.00144535 0.0132573 0)
(0.00171207 -0.00282262 0)
(0.0013777 0.000366905 0)
(0.00163485 -0.00206698 0)
(-0.00100109 -0.00379808 0)
(-0.00156164 -0.00154212 0)
(0.00271964 0.000483231 0)
(0.0055185 -0.00410186 0)
(0.00295264 -0.00662554 0)
(-0.000530747 -0.00477539 0)
(-0.0010589 -0.00120172 0)
(-0.000104479 0.00126261 0)
(0.00178001 0.00478702 0)
(0.00265313 0.00133965 0)
(-0.000563056 -0.00203329 0)
(-0.00251584 0.000888382 0)
(0.000406751 0.0032406 0)
(0.00165722 0.001124 0)
(-0.00182564 0.000623405 0)
(-0.00334223 0.00246288 0)
(-0.000617966 0.00431915 0)
(0.0015126 0.00273897 0)
(0.000334199 -3.33684e-05 0)
(0.000603875 -0.00213021 0)
(-9.14578e-06 -0.00345535 0)
(-3.73617e-05 -0.00228431 0)
(0.00156707 -0.00164912 0)
(0.00257184 -0.00364055 0)
(0.00136366 -0.00484994 0)
(-0.000388239 -0.00331497 0)
(-0.00108874 -0.000548155 0)
(-0.000991784 0.00139322 0)
(-0.000167274 0.00281121 0)
(0.000396293 0.0014124 0)
(-0.000919282 3.52541e-05 0)
(-0.00203608 0.00148059 0)
(-0.00127954 0.00263014 0)
(-0.000817481 0.00135258 0)
(-0.00166419 0.00129318 0)
(-0.00210372 0.00332977 0)
(-0.00117064 0.00418799 0)
(-1.90675e-05 0.00187918 0)
(9.69398e-05 -0.000508861 0)
(0.000263337 -0.00190765 0)
(8.97779e-05 -0.0028911 0)
(0.000123182 -0.00292075 0)
(0.000715321 -0.00282296 0)
(0.000975018 -0.00336896 0)
(0.000293171 -0.00340784 0)
(-0.000662324 -0.00224039 0)
(-0.00117198 -0.000445851 0)
(-0.00121713 0.00110571 0)
(-0.000858844 0.00212514 0)
(-0.000614587 0.00179741 0)
(-0.00117456 0.00112267 0)
(-0.00174046 0.0014585 0)
(-0.00159208 0.00186767 0)
(-0.00144086 0.0017693 0)
(-0.00162794 0.00205463 0)
(-0.00158716 0.00278322 0)
(-0.000961733 0.00293215 0)
(-0.000124202 0.00155829 0)
(2.34812e-05 -0.000648369 0)
(9.90933e-05 -0.00189347 0)
(2.8981e-05 -0.00276892 0)
(1.37941e-05 -0.00308212 0)
(0.000163537 -0.00311393 0)
(0.000139169 -0.00312371 0)
(-0.000288115 -0.00271463 0)
(-0.000823925 -0.00167123 0)
(-0.00113713 -0.000259175 0)
(-0.00118481 0.00102572 0)
(-0.00102539 0.00184938 0)
(-0.000910398 0.00188211 0)
(-0.00113397 0.00158392 0)
(-0.00140616 0.00159353 0)
(-0.00141944 0.00172361 0)
(-0.00137135 0.00180763 0)
(-0.00135823 0.00207815 0)
(-0.00116114 0.00238141 0)
(-0.000670011 0.00221636 0)
(-9.81443e-05 0.00114747 0)
(3.6697e-06 -0.000690745 0)
(2.69534e-05 -0.00187044 0)
(-1.49837e-05 -0.00269732 0)
(-5.48729e-05 -0.00309118 0)
(-6.55211e-05 -0.0031237 0)
(-0.000170451 -0.00289754 0)
(-0.00044667 -0.00230532 0)
(-0.000750763 -0.00132795 0)
(-0.00096176 -0.000114146 0)
(-0.00100778 0.00101483 0)
(-0.000953354 0.00173963 0)
(-0.000901242 0.00191208 0)
(-0.000977724 0.00177662 0)
(-0.00109568 0.00169203 0)
(-0.0011294 0.00170051 0)
(-0.00110344 0.00177536 0)
(-0.0010213 0.00194127 0)
(-0.000809018 0.00202221 0)
(-0.00045391 0.00170588 0)
(-6.9923e-05 0.00082332 0)
(4.2111e-07 -0.000712421 0)
(3.77707e-06 -0.00185277 0)
(-1.25985e-05 -0.00264945 0)
(-3.42015e-05 -0.00305208 0)
(-5.8369e-05 -0.00305984 0)
(-0.000120472 -0.00272099 0)
(-0.000246944 -0.00202576 0)
(-0.000395782 -0.00107027 0)
(-0.000725294 2.27238e-05 0)
(-0.000820007 0.00105885 0)
(-0.000842026 0.00170545 0)
(-0.00083401 0.0019116 0)
(-0.000861031 0.0018398 0)
(-0.000909353 0.00173341 0)
(-0.000927812 0.00168665 0)
(-0.000897228 0.00171615 0)
(-0.000799647 0.00179158 0)
(-0.00061137 0.00174551 0)
(-0.00034613 0.00136415 0)
(-7.22716e-05 0.000595756 0)
)
;

boundaryField
{
    top
    {
        type            pressureInletOutletVelocity;
        value           nonuniform List<vector> 
20
(
(0 -0.000712421 0)
(0 -0.00185277 0)
(0 -0.00264945 0)
(0 -0.00305208 0)
(0 -0.00305984 0)
(0 -0.00272099 0)
(0 -0.00202576 0)
(0 -0.00107027 0)
(-0.000725294 2.27238e-05 0)
(-0.000820007 0.00105885 0)
(-0.000842026 0.00170545 0)
(-0.00083401 0.0019116 0)
(-0.000861031 0.0018398 0)
(-0.000909353 0.00173341 0)
(-0.000927812 0.00168665 0)
(-0.000897228 0.00171615 0)
(-0.000799647 0.00179158 0)
(-0.00061137 0.00174551 0)
(-0.00034613 0.00136415 0)
(-7.22716e-05 0.000595756 0)
)
;
    }
    left
    {
        type            noSlip;
    }
    right
    {
        type            noSlip;
    }
    bottom
    {
        type            noSlip;
    }
    front
    {
        type            empty;
    }
    back
    {
        type            empty;
    }
    frontAndBack
    {
        type            empty;
    }
}


// ************************************************************************* //
