/*--------------------------------*- C++ -*----------------------------------*\
  =========                 |
  \\      /  F ield         | OpenFOAM: The Open Source CFD Toolbox
   \\    /   O peration     | Website:  https://openfoam.org
    \\  /    A nd           | Version:  10
     \\/     M anipulation  |
\*---------------------------------------------------------------------------*/
FoamFile
{
    format      ascii;
    class       surfaceScalarField;
    location    "0.01";
    object      alphaPhi.water;
}
// * * * * * * * * * * * * * * * * * * * * * * * * * * * * * * * * * * * * * //

dimensions      [0 3 -1 0 0 0 0];

internalField   nonuniform List<scalar> 
1540
(
1.22068e-13
-1.21765e-13
4.72261e-13
-3.49849e-13
9.36853e-13
-4.64236e-13
1.38997e-12
-4.52764e-13
1.72229e-12
-3.31958e-13
1.84805e-12
-1.25401e-13
1.71731e-12
1.3109e-13
1.32719e-12
3.90482e-13
7.21031e-13
6.06513e-13
-5.45823e-15
7.26845e-13
-7.31578e-13
7.26475e-13
-1.33693e-12
6.05703e-13
-1.72634e-12
3.89772e-13
-1.85661e-12
1.30616e-13
-1.73237e-12
-1.23883e-13
-1.39753e-12
-3.34489e-13
-9.40712e-13
-4.56473e-13
-4.77829e-13
-4.62505e-13
-1.24922e-13
-3.52517e-13
-1.24726e-13
3.57235e-13
-4.78656e-13
1.16425e-12
-1.15648e-12
2.16263e-12
-1.46222e-12
3.11058e-12
-1.40033e-12
3.79363e-12
-1.01462e-12
4.03501e-12
-3.66389e-13
3.73006e-12
4.3643e-13
2.87511e-12
1.24583e-12
1.56398e-12
1.91804e-12
-6.39614e-16
2.29185e-12
-1.56524e-12
2.29147e-12
-2.87593e-12
1.91678e-12
-3.73219e-12
1.24642e-12
-4.03919e-12
4.37998e-13
-3.79182e-12
-3.70869e-13
-3.11051e-12
-1.01541e-12
-2.16348e-12
-1.40311e-12
-1.16315e-12
-1.46244e-12
-3.5782e-13
-1.15745e-12
-4.82346e-13
5.25649e-13
-1.00395e-12
1.64018e-12
-2.27062e-12
2.9819e-12
-2.80354e-12
4.24501e-12
-2.66302e-12
5.14971e-12
-1.91892e-12
5.458e-12
-6.7428e-13
5.0265e-12
8.68327e-13
3.8628e-12
2.40994e-12
2.09546e-12
3.68578e-12
-2.34769e-15
4.39006e-12
-2.10003e-12
4.38955e-12
-3.86739e-12
3.68455e-12
-5.02947e-12
2.4089e-12
-5.45967e-12
8.68595e-13
-5.15325e-12
-6.769e-13
-4.24628e-12
-1.922e-12
-2.982e-12
-2.66698e-12
-1.6388e-12
-2.80525e-12
-5.25343e-13
-2.2705e-12
-1.00749e-12
6.39271e-13
-1.64286e-12
1.97612e-12
-3.60707e-12
3.57568e-12
-4.4027e-12
5.08315e-12
-4.17009e-12
6.16069e-12
-2.99606e-12
6.50218e-12
-1.01537e-12
5.9396e-12
1.43131e-12
4.53351e-12
3.81644e-12
2.44248e-12
5.77721e-12
-5.29758e-15
6.83824e-12
-2.45283e-12
6.83748e-12
-4.543e-12
5.77512e-12
-5.94765e-12
3.81395e-12
-6.50598e-12
1.42732e-12
-6.1671e-12
-1.01539e-12
-5.08804e-12
-3.00067e-12
-3.57808e-12
-4.17655e-12
-1.97601e-12
-4.40692e-12
-6.40437e-13
-3.60567e-12
-1.64773e-12
7.18616e-13
-2.36112e-12
2.2097e-12
-5.09776e-12
3.99395e-12
-6.18655e-12
5.67619e-12
-5.85193e-12
6.85592e-12
-4.17539e-12
7.15672e-12
-1.31578e-12
6.40924e-12
2.17919e-12
4.79641e-12
5.42966e-12
2.54394e-12
8.03008e-12
-7.04943e-15
9.38963e-12
-2.55769e-12
9.38851e-12
-4.80888e-12
8.0267e-12
-6.41975e-12
5.42522e-12
-7.16669e-12
2.17465e-12
-6.86237e-12
-1.31934e-12
-5.68144e-12
-4.1812e-12
-3.99868e-12
-5.85891e-12
-2.21179e-12
-6.19341e-12
-7.21044e-13
-5.09602e-12
-2.36858e-12
7.57256e-13
-3.11802e-12
2.31318e-12
-6.6533e-12
4.16803e-12
-8.041e-12
5.89506e-12
-7.57856e-12
7.0371e-12
-5.31703e-12
7.16574e-12
-1.44403e-12
6.16062e-12
3.18469e-12
4.40211e-12
7.18857e-12
2.26714e-12
1.01654e-11
-7.82987e-15
1.1665e-11
-2.28254e-12
1.16636e-11
-4.41597e-12
1.01605e-11
-6.17165e-12
7.18129e-12
-7.17395e-12
3.17733e-12
-7.04331e-12
-1.4496e-12
-5.90033e-12
-5.3238e-12
-4.17358e-12
-7.58527e-12
-2.3189e-12
-8.04769e-12
-7.60923e-13
-6.6536e-12
-3.12931e-12
7.34701e-13
-3.85238e-12
2.2254e-12
-8.14362e-12
3.98001e-12
-9.79522e-12
5.55964e-12
-9.1578e-12
6.46968e-12
-6.22668e-12
6.28935e-12
-1.26331e-12
5.11445e-12
4.35998e-12
3.43556e-12
8.86785e-12
1.69831e-12
1.19031e-11
-8.16625e-15
1.33719e-11
-1.71426e-12
1.33701e-11
-3.45096e-12
1.18976e-11
-5.12823e-12
8.85896e-12
-6.30099e-12
4.35046e-12
-6.47607e-12
-1.27415e-12
-5.56466e-12
-6.23484e-12
-3.98354e-12
-9.166e-12
-2.22834e-12
-9.80249e-12
-7.37932e-13
-8.14363e-12
-3.86705e-12
6.33727e-13
-4.48576e-12
1.89985e-12
-9.40937e-12
3.36317e-12
-1.12581e-11
4.61838e-12
-1.04126e-11
5.18048e-12
-6.7884e-12
4.71491e-12
-7.97362e-13
3.60433e-12
5.47094e-12
2.29348e-12
1.01791e-11
1.08879e-12
1.31082e-11
-8.81642e-15
1.44699e-11
-1.10614e-12
1.44678e-11
-2.31035e-12
1.31022e-11
-3.61983e-12
1.01688e-11
-4.72627e-12
5.45727e-12
-5.18943e-12
-8.10622e-13
-4.62272e-12
-6.80119e-12
-3.3641e-12
-1.04242e-11
-1.90049e-12
-1.12657e-11
-6.36361e-13
-9.40739e-12
-4.50323e-12
4.51299e-13
-4.93673e-12
1.33403e-12
-1.02917e-11
2.33348e-12
-1.22572e-11
3.15118e-12
-1.12299e-11
3.41247e-12
-7.04932e-12
2.90833e-12
-2.92844e-13
2.09325e-12
6.28639e-12
1.27534e-12
1.09974e-11
5.84748e-13
1.37991e-11
-9.95819e-15
1.50649e-11
-6.043e-13
1.50625e-11
-1.29381e-12
1.37921e-11
-2.10992e-12
1.09853e-11
-2.92217e-12
6.26989e-12
-3.4218e-12
-3.10634e-13
-3.15646e-12
-7.06617e-12
-2.33617e-12
-1.12442e-11
-1.33457e-12
-1.22669e-11
-4.53218e-13
-1.02884e-11
-4.95627e-12
2.0503e-13
-5.14143e-12
5.89182e-13
-1.06755e-11
1.01165e-12
-1.26793e-11
1.34332e-12
-1.15612e-11
1.41883e-12
-7.12447e-12
1.17105e-12
-4.47043e-14
8.04244e-13
6.65356e-12
4.69831e-13
1.13322e-11
2.0533e-13
1.4064e-11
-1.15762e-14
1.52822e-11
-2.27907e-13
1.52792e-11
-4.90574e-13
1.40551e-11
-8.22211e-13
1.13173e-11
-1.18498e-12
6.63301e-12
-1.42906e-12
-6.62045e-14
-1.34905e-12
-7.14583e-12
-1.01491e-12
-1.1578e-11
-5.91002e-13
-1.26905e-11
-2.07318e-13
-1.06717e-11
-5.16341e-12
-6.67789e-14
-5.07434e-12
-2.23226e-13
-1.05187e-11
-4.16121e-13
-1.24861e-11
-5.69776e-13
-1.14072e-11
-5.98222e-13
-7.09568e-12
-4.80433e-13
-1.62142e-13
-3.35797e-13
6.50928e-12
-2.07682e-13
1.12044e-11
-1.03387e-13
1.39601e-11
-1.35508e-14
1.51927e-11
7.70665e-14
1.5189e-11
1.83683e-13
1.39488e-11
3.15466e-13
1.11858e-11
4.64185e-13
6.48463e-12
5.88226e-13
-1.89908e-13
5.63351e-13
-7.12062e-12
4.12263e-13
-1.14265e-11
2.20654e-13
-1.24985e-11
6.37816e-14
-1.05145e-11
-5.09947e-12
-3.21741e-13
-4.75229e-12
-9.83009e-13
-9.85715e-12
-1.75592e-12
-1.17128e-11
-2.38566e-12
-1.07772e-11
-2.54931e-12
-6.93169e-12
-2.10924e-12
-6.01877e-13
-1.48869e-12
5.88907e-12
-8.99882e-13
1.06159e-11
-4.21016e-13
1.34815e-11
-1.57708e-14
1.47878e-11
3.90485e-13
1.4783e-11
8.72282e-13
1.34674e-11
1.46566e-12
1.05928e-11
2.09173e-12
5.85888e-12
2.53661e-12
-6.34461e-13
2.37688e-12
-6.96056e-12
1.75035e-12
-1.07997e-11
9.79269e-13
-1.17271e-11
3.17892e-13
-9.85278e-12
-4.78141e-12
-5.19868e-13
-4.23213e-12
-1.57849e-12
-8.79821e-12
-2.82067e-12
-1.04703e-11
-3.88104e-12
-9.71648e-12
-4.29506e-12
-6.51735e-12
-3.78426e-12
-1.11235e-12
-2.78893e-12
4.89406e-12
-1.72186e-12
9.54916e-12
-8.12163e-13
1.25722e-11
-1.81611e-14
1.39941e-11
7.77023e-13
1.39882e-11
1.69025e-12
1.25545e-11
2.7626e-12
9.52075e-12
3.76321e-12
4.85858e-12
4.2785e-12
-1.14944e-12
3.86855e-12
-6.55031e-12
2.81246e-12
-9.74327e-12
1.57294e-12
-1.04873e-11
5.14898e-13
-8.79442e-12
-4.26636e-12
-6.36642e-13
-3.59521e-12
-1.93712e-12
-7.49743e-12
-3.48254e-12
-8.92461e-12
-4.87516e-12
-8.32357e-12
-5.62461e-12
-5.76759e-12
-5.32664e-12
-1.41002e-12
-4.15413e-12
3.72186e-12
-2.67979e-12
8.07512e-12
-1.30234e-12
1.1195e-11
-2.05694e-14
1.27127e-11
1.2624e-12
1.27055e-11
2.64335e-12
1.11738e-11
4.12262e-12
8.04178e-12
5.29944e-12
3.68205e-12
5.60174e-12
-1.45144e-12
4.85744e-12
-5.80572e-12
3.47048e-12
-8.35602e-12
1.92849e-12
-8.94501e-12
6.29869e-13
-7.49551e-12
-3.63635e-12
-6.67373e-13
-2.92758e-12
-2.04045e-12
-6.12406e-12
-3.69319e-12
-7.27158e-12
-5.24696e-12
-6.76952e-12
-6.25528e-12
-4.75898e-12
-6.27002e-12
-1.39499e-12
-5.23239e-12
2.68452e-12
-3.61677e-12
6.45979e-12
-1.83199e-12
9.41051e-12
-2.29848e-14
1.09039e-11
1.78694e-12
1.08959e-11
3.57415e-12
9.3869e-12
5.19268e-12
6.42353e-12
6.23352e-12
2.64149e-12
6.22337e-12
-1.44102e-12
5.22199e-12
-4.80407e-12
3.67572e-12
-6.80948e-12
2.02808e-12
-7.29709e-12
6.58388e-13
-6.12553e-12
-2.97783e-12
-6.24623e-13
-2.3027e-12
-1.92142e-12
-4.827e-12
-3.49347e-12
-5.69926e-12
-5.00141e-12
-5.2613e-12
-6.07144e-12
-3.68869e-12
-6.32056e-12
-1.14559e-12
-5.59301e-12
1.95723e-12
-4.1216e-12
4.98865e-12
-2.16746e-12
7.45665e-12
-2.60376e-14
8.76279e-12
2.1156e-12
8.75449e-12
4.07007e-12
7.4327e-12
5.54193e-12
4.95192e-12
6.27182e-12
1.91186e-12
6.02812e-12
-1.19706e-12
4.96696e-12
-3.74265e-12
3.46872e-12
-5.31098e-12
1.90372e-12
-5.73182e-12
6.12531e-13
-4.83408e-12
-2.36517e-12
-5.35075e-13
-1.7674e-12
-1.65853e-12
-3.70329e-12
-3.02396e-12
-4.33357e-12
-4.3378e-12
-3.94721e-12
-5.30244e-12
-2.72379e-12
-5.62578e-12
-8.21997e-13
-5.1468e-12
1.47851e-12
-3.92723e-12
3.76933e-12
-2.1199e-12
5.64957e-12
-3.0508e-14
6.67365e-12
2.05825e-12
6.66598e-12
3.86378e-12
5.62742e-12
5.08197e-12
3.73398e-12
5.56258e-12
1.43149e-12
5.24507e-12
-8.79306e-13
4.29071e-12
-2.78805e-12
2.98892e-12
-4.00895e-12
1.63358e-12
-4.37623e-12
5.18805e-13
-3.71907e-12
-1.84625e-12
-4.27627e-13
-1.33955e-12
-1.33879e-12
-2.7919e-12
-2.44794e-12
-3.22419e-12
-3.50907e-12
-2.88584e-12
-4.29032e-12
-1.94231e-12
-4.57918e-12
-5.32899e-13
-4.24235e-12
1.14192e-12
-3.27979e-12
2.807e-12
-1.79533e-12
4.16534e-12
-3.60547e-14
4.91461e-12
1.72191e-12
4.90824e-12
3.20254e-12
4.14703e-12
4.16154e-12
2.7752e-12
4.49834e-12
1.09492e-12
4.21458e-12
-5.9532e-13
3.4442e-12
-2.01744e-12
2.3975e-12
-2.96202e-12
1.30254e-12
-3.28104e-12
4.05018e-13
-2.82132e-12
-1.44112e-12
-3.23543e-13
-1.01581e-12
-1.02723e-12
-2.08799e-12
-1.88673e-12
-2.36446e-12
-2.70134e-12
-2.07101e-12
-3.29282e-12
-1.3506e-12
-3.51093e-12
-3.14576e-13
-3.25802e-12
8.89225e-13
-2.52582e-12
2.07502e-12
-1.3925e-12
3.03224e-12
-4.13446e-14
3.56367e-12
1.30788e-12
3.55924e-12
2.4341e-12
3.02101e-12
3.15839e-12
2.05112e-12
3.40748e-12
8.46038e-13
3.19182e-12
-3.79459e-13
2.61034e-12
-1.43575e-12
1.81192e-12
-2.16339e-12
9.73e-13
-2.44191e-12
2.91205e-13
-2.1393e-12
-1.14981e-12
-2.34828e-13
-7.80786e-13
-7.60331e-13
-1.56228e-12
-1.40577e-12
-1.71881e-12
-2.01046e-12
-1.46611e-12
-2.43919e-12
-9.21669e-13
-2.5894e-12
-1.64155e-13
-2.39351e-12
6.93541e-13
-1.85212e-12
1.53384e-12
-1.02515e-12
2.20547e-12
-4.48552e-14
2.58358e-12
9.33245e-13
2.58134e-12
1.747e-12
2.20746e-12
2.27164e-12
1.52668e-12
2.45601e-12
6.61864e-13
2.30274e-12
-2.25987e-13
1.88083e-12
-1.01365e-12
1.29156e-12
-1.57392e-12
6.75998e-13
-1.82614e-12
1.86398e-13
-1.6495e-12
-9.63309e-13
-1.70551e-13
-6.10054e-13
-5.53592e-13
-1.17904e-12
-1.02899e-12
-1.24322e-12
-1.46567e-12
-1.02923e-12
-1.76496e-12
-6.22186e-13
-1.86095e-12
-6.79655e-14
-1.70362e-12
5.36403e-13
-1.30961e-12
1.14002e-12
-7.24396e-13
1.62045e-12
-4.41552e-14
1.90353e-12
6.34806e-13
1.90257e-12
1.19589e-12
1.64656e-12
1.55537e-12
1.16738e-12
1.68653e-12
5.30891e-13
1.57894e-12
-1.18203e-13
1.28054e-12
-7.1507e-13
8.50024e-13
-1.14321e-12
4.1825e-13
-1.39418e-12
9.47093e-14
-1.32576e-12
-8.68504e-13
-1.25205e-13
-4.84672e-13
-4.14719e-13
-8.89334e-13
-7.57401e-13
-9.00338e-13
-1.05672e-12
-7.29712e-13
-1.25335e-12
-4.25359e-13
-1.30957e-12
-1.15574e-14
-1.16968e-12
3.96705e-13
-8.80228e-13
8.50762e-13
-4.79411e-13
1.21982e-12
-4.01701e-14
1.46448e-12
4.12122e-13
1.45047e-12
7.73401e-13
1.28547e-12
9.90546e-13
9.50417e-13
1.0741e-12
4.47515e-13
1.00162e-12
-4.55383e-14
7.9872e-13
-5.11987e-13
4.72869e-13
-8.17177e-13
1.86813e-13
-1.10793e-12
1.96157e-15
-1.14072e-12
-8.66443e-13
-1.14407e-13
-3.70089e-13
-3.4535e-13
-6.58196e-13
-5.82656e-13
-6.62834e-13
-7.56045e-13
-5.56127e-13
-8.60212e-13
-3.20998e-13
-9.16796e-13
4.52201e-14
-7.39049e-13
2.19149e-13
-5.0338e-13
6.15283e-13
-2.60726e-13
9.77355e-13
-3.12582e-14
1.2352e-12
2.54808e-13
1.16459e-12
4.58943e-13
1.08152e-12
5.35022e-13
8.74522e-13
5.86578e-13
3.96142e-13
5.31453e-13
9.76929e-15
4.05368e-13
-3.85718e-13
1.27428e-13
-5.39047e-13
-4.5995e-14
-9.34314e-13
-1.0325e-13
-1.08326e-12
-9.69594e-13
-1.49359e-13
-2.20549e-13
-3.75791e-13
-4.31565e-13
-4.71946e-13
-5.66473e-13
-4.64708e-13
-5.63159e-13
-5.17445e-13
-2.68058e-13
-6.04405e-13
1.32381e-13
-3.17305e-13
-6.77527e-14
-1.07371e-13
4.05546e-13
-1.02065e-14
8.80386e-13
-3.63027e-15
1.22882e-12
1.51096e-13
1.01005e-12
2.05553e-13
1.02725e-12
8.5864e-14
9.94402e-13
6.90256e-14
4.13171e-13
1.23179e-13
-4.41935e-14
8.56951e-14
-3.4804e-13
-2.18179e-13
-2.34977e-13
-3.37928e-13
-8.14362e-13
-2.36357e-13
-1.18463e-12
-1.20584e-12
-2.04821e-13
-1.55395e-14
-5.20185e-13
-1.1599e-13
-3.56352e-13
-7.30088e-13
-9.13048e-14
-8.27988e-13
-8.19254e-14
-2.77221e-13
-3.12108e-13
3.62778e-13
1.65315e-13
-5.44964e-13
4.9481e-13
7.62612e-14
3.80419e-13
9.94986e-13
6.92417e-14
1.5402e-12
1.53765e-13
9.25737e-13
7.78353e-14
1.10339e-12
-3.44192e-13
1.41663e-12
-3.90124e-13
4.59307e-13
-3.36307e-13
-9.78054e-14
-3.67684e-13
-3.16455e-13
-7.5363e-13
1.51182e-13
-8.08044e-13
-7.59731e-13
-4.81428e-13
-1.51102e-12
-1.68716e-12
-7.64879e-13
7.4954e-13
-9.03366e-13
2.27157e-14
-1.91705e-13
-1.44152e-12
4.61483e-13
-1.48095e-12
7.33833e-13
-5.49345e-13
3.39317e-13
7.57519e-13
1.15841e-12
-1.36384e-12
1.70267e-12
-4.67774e-13
1.21557e-12
1.48231e-12
4.54383e-13
2.30161e-12
3.43642e-13
1.0367e-12
-1.87944e-13
1.63519e-12
-1.14477e-12
2.37368e-12
-1.19921e-12
5.13965e-13
-6.80401e-13
-6.16396e-13
-7.39036e-13
-2.57599e-13
-1.3291e-12
7.41468e-13
-1.13664e-12
-9.51965e-13
-8.24163e-13
-1.82326e-12
-2.51121e-12
-2.23405e-12
2.98379e-12
-1.02343e-12
-1.18768e-12
1.02163e-12
-3.48636e-12
1.3361e-12
-1.7952e-12
1.78259e-12
-9.95614e-13
1.68121e-12
8.59122e-13
2.64257e-12
-2.32498e-12
3.03472e-12
-8.59716e-13
2.80331e-12
1.71394e-12
2.12109e-12
2.98404e-12
1.18402e-12
1.97397e-12
-8.10104e-13
3.62953e-12
-1.70092e-12
3.2647e-12
-1.27563e-12
8.88855e-14
-1.17424e-12
-7.1757e-13
-1.93295e-12
5.01326e-13
-2.33782e-12
1.14655e-12
-2.03922e-12
-1.25034e-12
-1.90436e-12
-1.9579e-12
-4.41547e-12
-7.87911e-12
1.0863e-11
1.6862e-12
-1.07528e-11
5.77547e-12
-7.57546e-12
1.02426e-12
2.95615e-12
2.12774e-12
-2.09892e-12
7.26946e-12
-4.28246e-12
4.39604e-12
5.48656e-13
1.23131e-12
2.30517e-12
6.80103e-12
-3.85561e-12
9.71417e-12
7.10726e-14
7.08145e-13
1.09801e-11
-5.8978e-12
1.02356e-11
-6.41587e-13
-1.99134e-12
2.6337e-12
-3.18623e-12
-3.10651e-12
5.02274e-12
-7.32781e-12
4.72282e-12
-2.10604e-12
-4.07508e-12
-1.2727e-12
-2.0835e-12
-3.9116e-12
6.8117e-13
-8.32701e-12
-2.94924e-11
4.03556e-11
1.51142e-11
-5.53433e-11
2.43738e-11
-1.68227e-11
-1.88707e-11
4.61584e-11
-4.96466e-12
-1.6004e-11
3.44599e-11
-4.36883e-11
8.18367e-12
2.68029e-11
-2.61995e-11
3.66736e-11
1.32674e-11
-4.33184e-11
4.32262e-11
-2.98876e-11
-5.71614e-12
5.98997e-11
-3.80827e-11
4.25956e-11
6.75874e-12
-4.68306e-11
2.57229e-11
-2.21487e-11
-1.56946e-11
4.64244e-11
-2.96215e-11
1.86445e-11
1.23014e-12
-3.49042e-11
1.7634e-12
-2.61572e-12
-1.29585e-11
1.54032e-11
-2.12925e-11
-1.15941e-10
8.75221e-11
5.22787e-11
-1.23344e-10
8.23903e-11
-2.41807e-11
-8.9538e-11
1.20079e-10
-3.71705e-11
-3.81596e-11
1.03793e-10
-1.03008e-10
8.67278e-12
6.81567e-11
-1.18284e-10
9.12755e-11
2.07113e-11
-1.04833e-10
1.31985e-10
-8.01477e-11
-3.3662e-11
1.24929e-10
-1.2859e-10
7.68894e-11
4.13407e-11
-1.24426e-10
1.05145e-10
-4.81683e-11
-5.89754e-11
1.16649e-10
-8.45336e-11
2.47308e-11
3.65664e-11
-8.69598e-11
1.91492e-11
9.23649e-12
-4.18271e-11
4.37715e-11
-3.30906e-11
-1.76219e-11
1.96322e-12
3.2838e-12
-1.18877e-12
7.61639e-12
-1.34371e-12
-1.95312e-11
4.05346e-12
-8.10928e-12
-2.52688e-12
1.57534e-11
-4.29739e-12
-6.32281e-13
1.42689e-12
-2.34343e-11
2.68846e-12
2.30035e-12
-5.58179e-12
2.60238e-11
-4.29288e-12
-6.93541e-12
5.39366e-12
-1.99729e-11
8.64488e-13
7.69401e-12
-7.60096e-12
2.28097e-11
-2.90967e-12
-6.3571e-12
4.47055e-12
-1.0275e-11
0
6.60394e-12
-1.34989e-12
4.40736e-12
0
-3.80311e-12
1.38935e-13
-1.85192e-13
1.11905e-12
0
-2.05647e-14
-3.07044e-14
-1.34279e-12
-6.38417e-15
1.26324e-12
6.30367e-14
8.63832e-15
-1.22169e-14
-1.11792e-12
-3.88182e-14
-2.49335e-13
0
1.41459e-12
0
-2.10994e-14
-8.84511e-14
-2.49839e-12
-5.87424e-14
8.48641e-13
6.26115e-14
9.92752e-13
0
-1.93939e-14
-1.53307e-13
-1.36432e-12
-4.41806e-14
1.40281e-12
0
2.58676e-13
0
-4.55257e-14
-1.87876e-14
-1.11013e-13
0
1.63547e-13
0
-3.45023e-15
1.72965e-14
0
-7.38878e-16
-5.32159e-16
-2.1619e-14
-1.04892e-16
1.54364e-14
0
6.28057e-17
-4.27123e-17
-9.42043e-15
-1.20155e-16
-2.56332e-15
0
1.5715e-14
0
-3.38223e-16
-5.91861e-16
-3.11076e-14
-1.03334e-15
3.2372e-15
4.39756e-16
1.03806e-14
0
-7.05231e-16
-1.40501e-15
-2.5183e-14
-1.43372e-15
1.72709e-14
9.65206e-17
1.4042e-15
0
-1.05258e-16
-1.46834e-16
-1.00614e-15
0
2.39717e-15
9.60688e-18
-1.9967e-16
8.20029e-17
0
-3.01045e-18
0
-1.93219e-16
0
1.07451e-16
0
1.29819e-19
-4.78075e-20
-8.83966e-18
-5.02922e-19
-1.41965e-17
-2.45442e-20
2.50626e-17
0
-2.59543e-18
-5.84311e-18
-2.51506e-16
-1.26081e-17
9.00814e-17
4.96804e-19
1.56614e-17
0
-1.41672e-17
-7.66431e-18
-8.28668e-17
-1.94075e-17
-2.93923e-18
3.37092e-20
5.95683e-18
0
-3.64492e-19
0
-6.43342e-20
0
1.00618e-17
0
-2.53339e-18
1.66404e-19
0
4.37971e-20
0
-1.71639e-19
0
6.96279e-19
0
0
0
-2.37158e-22
-6.27535e-21
-2.20998e-20
-6.48841e-22
1.29303e-19
-2.69974e-20
-3.91293e-19
-3.02662e-19
-6.11446e-19
-3.28424e-19
-6.72203e-20
-2.8489e-20
4.01896e-20
-2.21651e-20
-2.57785e-19
-1.06852e-20
-8.12092e-20
-9.63582e-20
-4.74219e-20
-6.88552e-23
-3.42913e-20
0
-5.92275e-22
0
7.44391e-22
0
1.48304e-19
0
-1.55803e-22
6.07471e-22
0
2.22073e-21
0
8.66898e-22
0
1.82324e-21
0
6.56675e-24
3.23449e-25
2.98163e-23
-3.68402e-24
8.61667e-23
-8.37672e-24
3.06383e-22
-2.88767e-22
-7.14504e-21
-1.61141e-21
-1.45122e-20
-4.19469e-21
-7.45715e-21
-1.42496e-21
-9.31296e-22
-5.07861e-22
-5.9726e-22
-1.60591e-22
-3.38847e-25
-4.39091e-23
-6.91303e-23
-4.80474e-26
-1.9713e-22
0
-6.49601e-24
0
3.63206e-25
9.9555e-26
1.56492e-22
0
5.77583e-28
1.32612e-24
8.98813e-27
1.56514e-23
1.84256e-25
1.74412e-23
4.99438e-25
4.61797e-24
3.08592e-26
2.33164e-24
2.20723e-25
1.53388e-24
-2.0878e-27
3.42637e-24
-1.69694e-26
3.86244e-23
-2.1869e-24
-3.54457e-23
-3.62481e-24
-1.06047e-22
-6.16126e-24
-9.7773e-23
-3.90402e-24
-1.07367e-22
-2.16743e-24
-7.57063e-24
-1.20806e-24
-9.66398e-26
-1.31373e-25
-8.23324e-26
-3.79987e-26
-2.1555e-25
-2.05458e-27
-7.4135e-26
3.86245e-26
-7.74529e-25
1.61297e-27
7.74501e-25
8.34587e-26
1.33262e-27
1.29115e-27
1.61917e-29
5.97308e-26
9.28117e-28
8.7495e-26
9.5698e-28
9.65925e-27
8.71642e-29
4.21702e-27
1.34708e-29
2.66912e-27
-9.58228e-31
1.34603e-26
-6.9334e-29
5.63924e-25
-2.67483e-27
6.46944e-26
-2.1383e-26
-5.05918e-25
-5.27522e-26
-8.11349e-25
-3.3487e-26
-8.59412e-25
-2.06728e-26
-1.04598e-25
-4.72841e-27
-7.14078e-26
-8.33457e-28
-4.04657e-27
-1.50654e-28
-1.27653e-25
-9.97872e-30
-7.3074e-28
-1.51362e-29
-9.23391e-27
4.26936e-29
5.51236e-28
2.82495e-28
7.83707e-28
5.08361e-30
7.61339e-30
2.54533e-28
9.87892e-30
1.90377e-28
4.54898e-30
1.94703e-29
1.41014e-30
8.01639e-30
6.4154e-32
3.86251e-30
2.07376e-31
1.10428e-28
-3.00701e-31
1.94743e-27
-4.15936e-30
5.51536e-27
-1.2824e-28
-1.33778e-27
-1.23369e-27
-6.24437e-27
-1.64743e-27
-2.83785e-27
-3.02927e-28
-4.98408e-28
-1.48902e-28
-9.84883e-29
-1.16377e-29
-6.09675e-30
-7.71727e-31
-2.26724e-29
-1.5288e-31
-5.17898e-29
-8.90497e-32
-1.91616e-29
8.56866e-31
-6.246e-31
1.10188e-30
7.96163e-31
5.81444e-31
1.58928e-30
1.97586e-30
6.89604e-31
8.01041e-32
5.64049e-32
3.59154e-31
2.47231e-30
3.82866e-29
9.01832e-29
-1.14381e-29
-1.68336e-29
-1.60624e-30
-1.04669e-31
-1.69075e-32
-1.62344e-32
-1.81342e-32
-1.95118e-31
-7.01409e-32
)
;

boundaryField
{
    top
    {
        type            calculated;
        value           nonuniform List<scalar> 
20
(
3.53822e-31
2.19297e-30
2.61391e-30
1.18208e-30
5.0904e-32
2.09216e-32
0
0
0
0
0
0
0
0
0
0
0
0
8.26537e-31
6.74715e-31
)
;
    }
    left
    {
        type            calculated;
        value           uniform 0;
    }
    right
    {
        type            calculated;
        value           uniform 0;
    }
    bottom
    {
        type            calculated;
        value           uniform 0;
    }
    front
    {
        type            empty;
        value           nonuniform List<scalar> 0();
    }
    back
    {
        type            empty;
        value           nonuniform List<scalar> 0();
    }
    frontAndBack
    {
        type            empty;
        value           nonuniform List<scalar> 0();
    }
}


// ************************************************************************* //
