/*--------------------------------*- C++ -*----------------------------------*\
  =========                 |
  \\      /  F ield         | OpenFOAM: The Open Source CFD Toolbox
   \\    /   O peration     | Website:  https://openfoam.org
    \\  /    A nd           | Version:  10
     \\/     M anipulation  |
\*---------------------------------------------------------------------------*/
FoamFile
{
    format      ascii;
    class       volScalarField;
    location    "0.01";
    object      alpha.water;
}
// * * * * * * * * * * * * * * * * * * * * * * * * * * * * * * * * * * * * * //

dimensions      [0 0 0 0 0 0 0];

internalField   nonuniform List<scalar> 
800
(
0.999999
0.999998
0.999998
0.999998
0.999998
0.999998
0.999998
0.999998
0.999998
0.999998
0.999998
0.999998
0.999998
0.999998
0.999998
0.999998
0.999998
0.999998
0.999998
0.999999
0.999998
0.999998
0.999998
0.999998
0.999998
0.999998
0.999998
0.999998
0.999998
0.999998
0.999998
0.999998
0.999998
0.999998
0.999998
0.999998
0.999998
0.999998
0.999998
0.999999
0.999998
0.999998
0.999998
0.999998
0.999998
0.999998
0.999998
0.999998
0.999998
0.999998
0.999998
0.999998
0.999998
0.999998
0.999998
0.999998
0.999998
0.999998
0.999998
0.999999
0.999998
0.999998
0.999998
0.999998
0.999998
0.999998
0.999998
0.999998
0.999998
0.999998
0.999998
0.999998
0.999998
0.999998
0.999998
0.999998
0.999998
0.999998
0.999998
0.999999
0.999998
0.999998
0.999998
0.999998
0.999998
0.999998
0.999998
0.999998
0.999998
0.999998
0.999998
0.999998
0.999998
0.999998
0.999998
0.999998
0.999998
0.999998
0.999998
0.999999
0.999998
0.999998
0.999998
0.999998
0.999998
0.999998
0.999998
0.999998
0.999998
0.999998
0.999998
0.999998
0.999998
0.999998
0.999998
0.999998
0.999998
0.999998
0.999998
0.999999
0.999998
0.999998
0.999998
0.999998
0.999998
0.999998
0.999998
0.999998
0.999998
0.999998
0.999998
0.999998
0.999998
0.999998
0.999998
0.999998
0.999998
0.999998
0.999998
0.999999
0.999999
0.999998
0.999998
0.999998
0.999998
0.999998
0.999998
0.999998
0.999998
0.999998
0.999998
0.999998
0.999998
0.999998
0.999998
0.999998
0.999998
0.999998
0.999998
0.999999
0.999999
0.999998
0.999998
0.999998
0.999998
0.999998
0.999998
0.999998
0.999998
0.999998
0.999998
0.999998
0.999998
0.999998
0.999998
0.999998
0.999998
0.999998
0.999998
0.999999
0.999999
0.999998
0.999998
0.999998
0.999998
0.999998
0.999998
0.999998
0.999998
0.999998
0.999998
0.999998
0.999999
0.999999
0.999999
0.999999
0.999999
0.999999
0.999999
0.999999
0.999999
0.999999
0.999999
0.999999
0.999999
0.999999
0.999999
0.999999
0.999999
0.999999
0.999999
0.999999
0.999999
0.999999
0.999999
0.999999
0.999999
0.999999
0.999999
0.999999
0.999999
0.999999
0.999999
0.999999
0.999999
0.999999
0.999999
0.999999
0.999999
0.999999
0.999999
0.999999
0.999999
0.999999
0.999999
0.999999
0.999999
0.999999
0.999999
0.999999
0.999999
0.999999
0.999999
0.999999
0.999999
0.999999
0.999999
0.999999
0.999999
0.999999
0.999999
0.999999
0.999999
0.999999
0.999999
0.999999
0.999999
0.999999
0.999999
0.999999
0.999999
0.999999
0.999999
0.999999
0.999999
0.999999
0.999999
0.999999
0.999999
0.999999
0.999999
0.999999
0.999999
0.999999
0.999999
0.999999
0.999999
0.999999
0.999999
0.999999
0.999999
0.999999
0.999999
0.999999
0.999999
0.999999
0.999999
0.999999
0.999999
0.999999
0.999999
0.999999
0.999999
0.999999
0.999999
0.999999
0.999999
0.999999
0.999999
1
0.999999
0.999999
0.999999
0.999999
0.999999
0.999999
0.999999
0.999999
0.999999
0.999999
0.999999
0.999999
0.999999
0.999999
0.999999
0.999999
0.999999
0.999999
0.999999
1
0.999999
0.999999
0.999999
0.999999
0.999999
0.999999
0.999999
0.999999
0.999999
0.999999
0.999999
0.999999
0.999999
0.999999
0.999999
0.999999
0.999999
0.999999
0.999999
1
0.999999
0.999999
0.999999
0.999999
0.999999
0.999999
0.999999
0.999999
0.999999
0.999999
0.999999
0.999999
0.999999
0.999999
0.999999
0.999999
0.999999
0.999999
0.999999
1
0.999999
0.999999
0.999999
0.999999
0.999999
0.999999
0.999999
0.999999
0.999999
0.999999
0.999999
0.999999
0.999999
0.999999
0.999999
0.999999
0.999999
0.999999
0.999999
1
1
1
1
1
1
1
1
1
1
1
1
1
1
1
1
1
1
1
1
1
1
1
1
1
1
1
1
1
1
1
1
1
1
1
1
1
1
1
1
1
1
1
1
1
1
1
1
1
1
1
1
1
1
1
1
1
1
1
1
1
1
1
1
1
1
1
1
1
1
1
1
1
1
1
1
1
1
1
1
1
1
1
1
1
1
1
1
1
1
1
1
1
1
1
1
1
1
1
1
1
1
1
1
1
1
1
1
1
1
1
1
1
1
1
1
1
1
1
1
1
1
1
1
1
1
1
1
1
1
1
1
1
1
1
1
1
1
1
1
1
1
1
1
1
1
1
1
1
1
1
1
1
1
1
1
1
1
1
1
1
1
1
1
0.999997
1
0.999995
1
0.999998
1
1
1
1
0.999998
1
0.999995
1
0.999996
1
1
1
1
0.999997
0.999997
0.999997
0.999999
0.999994
1
0.999998
0.999999
1
1
1
0.999998
0.999999
0.999995
1
0.999996
0.999999
1
0.999998
0.87199
0.860315
0.861378
0.873446
0.868297
0.866118
0.868979
0.873583
0.873764
0.873493
0.878403
0.876088
0.878403
0.874766
0.876664
0.869834
0.869346
0.874032
0.874496
0.85874
0.133942
0.111685
0.118323
0.133558
0.131933
0.119727
0.132363
0.135622
0.130962
0.129687
0.135991
0.135464
0.128052
0.133427
0.132287
0.124091
0.121577
0.134665
0.137235
0.115224
0.000200243
2.82879e-05
2.44516e-05
0.000256394
6.28017e-06
7.05641e-06
0.000123513
0.000190532
1.64408e-05
3.14267e-05
0.000350647
0.000166697
3.8624e-05
5.73426e-05
0.000318009
0.00022954
1.59109e-05
0.000306308
4.86275e-05
1.74513e-05
1.09282e-05
2.37313e-05
2.34916e-05
5.98763e-06
4.15958e-06
2.37096e-08
2.23372e-05
6.74526e-06
1.4335e-06
2.19827e-05
5.18034e-06
3.78859e-05
1.15919e-05
5.09366e-05
8.53664e-06
3.10486e-05
1.23304e-05
5.53264e-06
2.94788e-05
1.70468e-05
5.13748e-08
1.44746e-07
6.41452e-07
1.36411e-06
1.59154e-08
2.23623e-09
1.84356e-07
8.87492e-08
5.1704e-08
4.48535e-07
1.83326e-08
7.08554e-07
2.69785e-07
1.3285e-06
2.9579e-09
6.85703e-08
2.62529e-07
2.31739e-08
3.12807e-08
6.79308e-07
1.37019e-09
3.30414e-08
8.41536e-09
1.84081e-08
1.21614e-10
2.16044e-09
3.54625e-11
6.65315e-09
4.11883e-08
3.32603e-08
1.06285e-09
9.72425e-09
7.82165e-10
1.44211e-08
2.08893e-14
2.14818e-09
8.46128e-09
1.11597e-10
3.05014e-08
3.48248e-10
6.80099e-11
2.12116e-10
9.12558e-11
7.39096e-11
6.67856e-13
4.04753e-12
3.53999e-11
1.15008e-10
3.74925e-10
1.3969e-09
1.05851e-09
6.54872e-10
7.57696e-11
1.70023e-11
8.72112e-15
1.76623e-12
3.10179e-12
2.7079e-13
1.97478e-11
2.0198e-15
2.51199e-13
1.46755e-12
1.82722e-12
6.16554e-13
2.71711e-13
2.4765e-13
5.90628e-13
1.56135e-11
2.16109e-11
1.9378e-11
1.94659e-11
1.56972e-11
1.59446e-11
4.60809e-13
8.71836e-15
7.51863e-15
8.78836e-15
1.42571e-14
9.45729e-13
2.01827e-15
2.51519e-16
5.39038e-15
7.70334e-15
1.5495e-15
8.34261e-16
4.26935e-16
1.77541e-15
2.00292e-13
2.38363e-13
2.81805e-13
2.34527e-13
2.18514e-13
1.56112e-13
1.4978e-14
8.76253e-15
6.47176e-16
2.41167e-14
2.20513e-16
9.30196e-15
1.15509e-15
3.23862e-18
5.26019e-17
2.99762e-17
4.45933e-18
2.23037e-18
7.2953e-19
1.42064e-17
3.9613e-16
2.93918e-15
6.9968e-15
4.94212e-15
3.68239e-15
7.9738e-16
1.16288e-16
1.93789e-17
1.91581e-18
1.47069e-17
2.86269e-17
2.20692e-17
7.8927e-18
4.45814e-19
4.45814e-19
4.21853e-19
2.47899e-19
1.61287e-20
1.58176e-20
8.26261e-20
7.72048e-19
1.98553e-17
1.78678e-16
2.49999e-16
4.90918e-17
2.00181e-17
1.22458e-18
7.17566e-20
1.73705e-20
1.93885e-20
7.69832e-20
5.75412e-19
6.72366e-19
)
;

boundaryField
{
    top
    {
        type            inletOutlet;
        inletValue      uniform 0;
        value           nonuniform List<scalar> 
20
(
4.45814e-19
4.45814e-19
4.21853e-19
2.47899e-19
1.61287e-20
1.58176e-20
0
0
0
0
0
0
0
0
0
0
0
0
5.75412e-19
6.72366e-19
)
;
    }
    left
    {
        type            zeroGradient;
    }
    right
    {
        type            zeroGradient;
    }
    bottom
    {
        type            zeroGradient;
    }
    front
    {
        type            empty;
    }
    back
    {
        type            empty;
    }
    frontAndBack
    {
        type            empty;
    }
}


// ************************************************************************* //
