/*--------------------------------*- C++ -*----------------------------------*\
  =========                 |
  \\      /  F ield         | OpenFOAM: The Open Source CFD Toolbox
   \\    /   O peration     | Website:  https://openfoam.org
    \\  /    A nd           | Version:  10
     \\/     M anipulation  |
\*---------------------------------------------------------------------------*/
FoamFile
{
    format      ascii;
    class       volScalarField;
    location    "0.01";
    object      p;
}
// * * * * * * * * * * * * * * * * * * * * * * * * * * * * * * * * * * * * * //

dimensions      [1 -1 -2 0 0 0 0];

internalField   nonuniform List<scalar> 
800
(
14.7201
14.7214
14.7209
14.7178
14.7123
14.7047
14.6963
14.6882
14.6818
14.6781
14.6779
14.6811
14.6871
14.6947
14.7028
14.71
14.7153
14.7181
14.7185
14.7175
14.228
14.2295
14.2291
14.2262
14.221
14.2141
14.2064
14.1991
14.1933
14.19
14.1897
14.1926
14.1979
14.2049
14.2122
14.2187
14.2236
14.2264
14.2266
14.2255
13.7379
13.7398
13.7395
13.7365
13.7313
13.7243
13.7164
13.709
13.703
13.6996
13.6994
13.7023
13.7078
13.7148
13.7223
13.7289
13.7338
13.7366
13.7367
13.7354
13.2503
13.2525
13.2523
13.249
13.2432
13.2352
13.2262
13.2177
13.2109
13.2071
13.2068
13.2101
13.2165
13.2244
13.2332
13.2406
13.2462
13.2492
13.2492
13.2475
12.7656
12.768
12.7677
12.7639
12.7571
12.7476
12.7369
12.7271
12.7196
12.7155
12.7152
12.7188
12.7257
12.7349
12.7454
12.7542
12.7609
12.7643
12.7644
12.7626
12.2843
12.2866
12.2861
12.2818
12.2738
12.263
12.251
12.2417
12.2357
12.2327
12.2324
12.2348
12.2402
12.2489
12.2604
12.2707
12.2784
12.2824
12.2826
12.2807
11.8065
11.8086
11.8078
11.8032
11.7946
11.7838
11.7734
11.7668
11.7638
11.7625
11.7622
11.7627
11.7651
11.771
11.7809
11.7912
11.7994
11.8038
11.8041
11.8024
11.3323
11.334
11.3331
11.3286
11.3206
11.3113
11.3048
11.3018
11.301
11.3008
11.3004
11.2999
11.2998
11.3022
11.308
11.3167
11.3242
11.3284
11.329
11.3276
10.8614
10.8625
10.8617
10.8581
10.852
10.8456
10.8426
10.8421
10.8425
10.8426
10.8421
10.8411
10.84
10.8397
10.8419
10.8476
10.8531
10.8562
10.8567
10.8559
10.3928
10.3933
10.3928
10.3909
10.388
10.3853
10.3845
10.3849
10.3854
10.3855
10.385
10.3839
10.3824
10.3811
10.381
10.3829
10.3852
10.3865
10.3867
10.3864
9.92535
9.9252
9.9252
9.92539
9.92598
9.927
9.92783
9.92855
9.92898
9.92896
9.9284
9.9273
9.92577
9.92399
9.92214
9.92019
9.91878
9.91794
9.9175
9.91781
9.45733
9.45665
9.45727
9.45957
9.46371
9.46855
9.47121
9.47247
9.47293
9.47284
9.47221
9.47104
9.46933
9.46684
9.463
9.45705
9.45193
9.44886
9.44765
9.44841
8.98725
8.9862
8.98739
8.99138
8.9983
9.00673
9.01266
9.01579
9.01683
9.01687
9.01617
9.01471
9.01225
9.0077
9.00037
8.99063
8.98252
8.97758
8.97564
8.97666
8.51387
8.51268
8.51437
8.51951
8.52824
8.53969
8.55016
8.55667
8.55933
8.56003
8.55925
8.55699
8.55272
8.54457
8.53244
8.5194
8.50921
8.50287
8.50025
8.50125
8.03641
8.03534
8.03751
8.0434
8.05309
8.06616
8.07981
8.09015
8.09623
8.09869
8.09785
8.09368
8.0858
8.07357
8.05796
8.04295
8.03143
8.02399
8.02063
8.02133
7.5545
7.5538
7.55649
7.56288
7.57276
7.58572
7.59996
7.61255
7.62176
7.6261
7.62523
7.61909
7.60791
7.59315
7.57657
7.56121
7.54897
7.54054
7.53628
7.53634
7.06809
7.06799
7.07133
7.07827
7.08833
7.10086
7.1145
7.1272
7.1371
7.14205
7.14121
7.13448
7.12251
7.10734
7.09087
7.07528
7.06215
7.05246
7.04697
7.04608
6.57724
6.57793
6.58219
6.59003
6.60081
6.61366
6.62725
6.63984
6.64962
6.65467
6.65399
6.6474
6.63555
6.62016
6.60307
6.58625
6.57139
6.55976
6.55246
6.55023
6.08196
6.08359
6.08907
6.09836
6.11072
6.12507
6.13999
6.15371
6.16433
6.17004
6.16972
6.16308
6.15061
6.13374
6.11439
6.0948
6.07689
6.06227
6.05236
6.04835
5.58209
5.58473
5.59171
5.6031
5.61813
5.63544
5.65337
5.66998
5.68309
5.69049
5.69087
5.68376
5.66949
5.6493
5.62555
5.60119
5.57858
5.55955
5.54584
5.53935
5.0773
5.08086
5.08945
5.10366
5.12277
5.14472
5.16759
5.18928
5.20703
5.21751
5.21906
5.21123
5.19395
5.16809
5.13695
5.10536
5.07616
5.05088
5.03155
5.02147
4.56722
4.57127
4.58104
4.59875
4.62406
4.65264
4.68251
4.71212
4.73791
4.75318
4.75638
4.74793
4.7268
4.69191
4.64849
4.60673
4.56925
4.53556
4.5073
4.49165
4.05176
4.05535
4.06414
4.08578
4.12165
4.15899
4.19714
4.2386
4.27911
4.30097
4.30533
4.29737
4.27342
4.22411
4.15827
4.10357
4.05818
4.01403
3.97093
3.94361
3.53145
3.53345
3.53352
3.55834
3.61816
3.67058
3.70883
3.76602
3.83853
3.86758
3.86571
3.86307
3.8454
3.77323
3.66676
3.5912
3.54619
3.49009
3.41833
3.3668
3.00631
3.00868
2.9721
2.99372
3.11057
3.18087
3.19571
3.27494
3.43593
3.47219
3.42495
3.44421
3.47147
3.3528
3.13634
3.04189
3.04071
2.97503
2.84441
2.73692
2.53787
2.52804
2.35796
2.36367
2.65665
2.76762
2.63255
2.76821
3.15491
3.16354
2.94754
3.0353
3.25022
3.02993
2.55709
2.46301
2.60917
2.52382
2.25353
2.00008
2.01667
1.91972
1.52426
1.48958
2.27775
2.37514
1.8107
2.05269
2.92356
2.95203
2.24257
2.51291
3.22044
2.71977
1.73676
1.67141
2.16215
2.15404
1.64493
0.988755
1.95212
1.32139
0.301464
1.02134
2.37681
2.02895
1.13657
1.62217
2.94592
2.8691
1.94561
2.34706
3.39175
2.72745
1.1239
0.940266
1.8297
2.3202
1.32014
-0.690227
3.42513
-2.08986
-2.92665
1.95962
2.47381
-0.583571
0.07351
1.73597
1.70614
1.27117
2.17112
2.20627
2.1486
2.22374
1.24699
-1.03895
-0.256804
3.50062
2.50032
-4.82634
11.1208
-10.4267
-9.29088
9.33574
5.56036
-5.47161
0.192553
6.06404
1.43182
-0.179164
5.0817
3.79717
1.22807
3.47611
4.30478
-4.93981
-5.01461
9.79422
9.94863
-14.0883
1.89004
-1.66162
-1.14782
1.75702
0.608763
-1.15358
0.250736
1.19129
-0.346961
-0.534497
0.939083
0.570909
-0.560991
0.25579
0.908062
-0.682954
-1.08526
1.50635
1.83665
-1.56048
-0.0522766
0.0478781
0.0342232
-0.058314
-0.0280973
0.0415093
0.00613032
-0.0313687
-0.005201
0.00674918
-0.0142269
-0.00498849
0.0115658
-0.0195682
-0.0197252
0.0418515
0.0349155
-0.0528573
-0.0414128
0.071745
-0.00874491
0.00662117
0.00728642
-0.0106128
-0.0147869
0.000105674
0.00126577
-0.00684847
-0.00967065
-0.00731933
-0.00201952
-0.00473854
-0.0114104
-0.00556051
0.000840293
0.00927724
0.00652385
-0.00704334
-0.00677845
0.0201413
0.000914353
0.00175782
0.00327289
-0.0019007
-0.00486212
-0.000241636
0.00273603
0.00122941
-0.00389681
-0.00390166
0.00203195
0.00185312
-0.00367229
-0.00243406
0.0055786
0.0074647
0.00436876
-0.000745451
-0.000563274
0.00787441
0.000484108
0.00204769
0.001807
-0.000946103
-0.000968965
0.00136315
0.00115364
0.00036974
-2.00226e-05
0.000404689
0.00111286
0.00145302
0.000760915
0.00114236
0.00318165
0.00532776
0.00449447
0.00136516
0.00114588
0.00471023
0.000781334
0.000892276
0.000972891
0.000331853
-2.85912e-05
0.00058359
0.00097877
0.000781959
1.85039e-05
0.000266871
0.00116844
0.0011465
0.000701319
0.00120878
0.00256377
0.00333232
0.00290734
0.00200507
0.0020149
0.00287326
0.00055157
0.000780921
0.000773385
0.00051581
0.000493826
0.000701229
0.00070676
0.000627918
0.000494157
0.000556536
0.000784262
0.000870035
0.000979215
0.00125884
0.00175156
0.00217576
0.00215534
0.00181229
0.00173766
0.00201855
0.00041865
0.000586073
0.000610572
0.000530849
0.000549861
0.000623901
0.0005837
0.000534808
0.000521241
0.000537335
0.000599871
0.000687248
0.000837324
0.00100533
0.00120954
0.00141262
0.00145538
0.00134006
0.00129019
0.00136711
0.000248965
0.000344828
0.000386521
0.000391278
0.000429938
0.000480241
0.000440887
0.000374073
0.000353394
0.000355496
0.000386481
0.000442912
0.000533409
0.000626598
0.000719824
0.000809642
0.000843042
0.0008118
0.000787873
0.000799508
1.37234e-05
5.00268e-05
8.59972e-05
0.000127602
0.000188906
0.000269821
0.000247614
0.000154029
0.000123572
0.000118107
0.00012534
0.00014676
0.000179396
0.000210124
0.000237101
0.00026456
0.000278987
0.000275446
0.000265648
0.000261163
)
;

boundaryField
{
    top
    {
        type            calculated;
        value           nonuniform List<scalar> 
20
(
0
0
0
0
0
0
0
-1.41179e-08
-6.83577e-08
-1.08073e-07
-1.11205e-07
-1.20909e-07
-1.8316e-07
-2.22861e-07
-2.04159e-07
-1.20373e-07
-3.1639e-08
0
0
0
)
;
    }
    left
    {
        type            calculated;
        value           nonuniform List<scalar> 
40
(
14.7201
14.228
13.7379
13.2503
12.7656
12.2843
11.8065
11.3323
10.8614
10.3928
9.92535
9.45733
8.98725
8.51387
8.03641
7.5545
7.06809
6.57724
6.08196
5.58209
5.0773
4.56722
4.05176
3.53145
3.00631
2.53787
2.01667
1.95212
3.42513
11.1208
1.89004
-0.0522766
-0.00874491
0.000914353
0.000484108
0.000781334
0.00055157
0.00041865
0.000248965
1.37234e-05
)
;
    }
    right
    {
        type            calculated;
        value           nonuniform List<scalar> 
40
(
14.7175
14.2255
13.7354
13.2475
12.7626
12.2807
11.8024
11.3276
10.8559
10.3864
9.91781
9.44841
8.97666
8.50125
8.02133
7.53634
7.04608
6.55023
6.04835
5.53935
5.02147
4.49165
3.94361
3.3668
2.73692
2.00008
0.988755
-0.690227
-4.82634
-14.0883
-1.56048
0.071745
0.0201413
0.00787441
0.00471023
0.00287326
0.00201855
0.00136711
0.000799508
0.000261163
)
;
    }
    bottom
    {
        type            calculated;
        value           nonuniform List<scalar> 
20
(
14.9654
14.9666
14.9661
14.9631
14.9575
14.95
14.9415
14.9334
14.927
14.9234
14.9231
14.9263
14.9323
14.94
14.948
14.9553
14.9606
14.9633
14.9637
14.9628
)
;
    }
    front
    {
        type            empty;
    }
    back
    {
        type            empty;
    }
    frontAndBack
    {
        type            empty;
    }
}


// ************************************************************************* //
