/*--------------------------------*- C++ -*----------------------------------*\
  =========                 |
  \\      /  F ield         | OpenFOAM: The Open Source CFD Toolbox
   \\    /   O peration     | Website:  https://openfoam.org
    \\  /    A nd           | Version:  10
     \\/     M anipulation  |
\*---------------------------------------------------------------------------*/
FoamFile
{
    format      ascii;
    class       volScalarField;
    location    "0.01";
    object      p_rgh;
}
// * * * * * * * * * * * * * * * * * * * * * * * * * * * * * * * * * * * * * //

dimensions      [1 -1 -2 0 0 0 0];

internalField   nonuniform List<scalar> 
800
(
14.9654
14.9666
14.9661
14.9631
14.9575
14.95
14.9415
14.9335
14.927
14.9234
14.9231
14.9263
14.9323
14.94
14.948
14.9553
14.9606
14.9633
14.9637
14.9628
14.9637
14.9653
14.9649
14.962
14.9568
14.9499
14.9422
14.9348
14.929
14.9257
14.9255
14.9283
14.9337
14.9406
14.948
14.9545
14.9594
14.9622
14.9624
14.9613
14.9641
14.966
14.9657
14.9628
14.9575
14.9506
14.9427
14.9352
14.9293
14.9259
14.9256
14.9285
14.934
14.941
14.9486
14.9551
14.9601
14.9628
14.963
14.9616
14.967
14.9692
14.969
14.9658
14.9599
14.952
14.943
14.9345
14.9277
14.9238
14.9236
14.9269
14.9332
14.9412
14.9499
14.9573
14.9629
14.9659
14.966
14.9643
14.9729
14.9752
14.9749
14.9712
14.9643
14.9548
14.9441
14.9344
14.9269
14.9228
14.9225
14.926
14.933
14.9421
14.9526
14.9615
14.9681
14.9716
14.9717
14.9698
14.982
14.9844
14.9838
14.9795
14.9715
14.9608
14.9487
14.9395
14.9334
14.9304
14.9301
14.9325
14.9379
14.9466
14.9582
14.9684
14.9761
14.9802
14.9804
14.9785
14.9947
14.9968
14.9961
14.9915
14.9829
14.9721
14.9616
14.9551
14.952
14.9508
14.9504
14.951
14.9534
14.9593
14.9691
14.9795
14.9876
14.9921
14.9924
14.9907
15.011
15.0128
15.0119
15.0073
14.9993
14.99
14.9836
14.9805
14.9798
14.9796
14.9792
14.9786
14.9786
14.9809
14.9867
14.9955
15.0029
15.0071
15.0077
15.0063
15.0306
15.0318
15.0309
15.0273
15.0213
15.0149
15.0119
15.0114
15.0117
15.0118
15.0114
15.0104
15.0092
15.0089
15.0111
15.0169
15.0223
15.0255
15.026
15.0252
15.0526
15.0531
15.0525
15.0507
15.0477
15.045
15.0442
15.0446
15.0451
15.0452
15.0447
15.0437
15.0422
15.0408
15.0408
15.0427
15.0449
15.0463
15.0464
15.0462
15.0756
15.0754
15.0754
15.0756
15.0762
15.0772
15.0781
15.0788
15.0792
15.0792
15.0786
15.0775
15.076
15.0742
15.0724
15.0704
15.069
15.0682
15.0677
15.0681
15.0981
15.0974
15.098
15.1003
15.1045
15.1093
15.1119
15.1132
15.1137
15.1136
15.113
15.1118
15.1101
15.1076
15.1037
15.0978
15.0927
15.0896
15.0884
15.0892
15.1185
15.1174
15.1186
15.1226
15.1295
15.138
15.1439
15.147
15.1481
15.1481
15.1474
15.146
15.1435
15.1389
15.1316
15.1219
15.1138
15.1088
15.1069
15.1079
15.1356
15.1344
15.1361
15.1413
15.15
15.1614
15.1719
15.1784
15.1811
15.1818
15.181
15.1787
15.1745
15.1663
15.1542
15.1411
15.131
15.1246
15.122
15.123
15.1487
15.1476
15.1498
15.1556
15.1653
15.1784
15.1921
15.2024
15.2085
15.2109
15.2101
15.2059
15.198
15.1858
15.1702
15.1552
15.1437
15.1362
15.1329
15.1336
15.1572
15.1565
15.1592
15.1656
15.1755
15.1885
15.2027
15.2153
15.2245
15.2288
15.228
15.2218
15.2107
15.1959
15.1793
15.1639
15.1517
15.1433
15.139
15.1391
15.1613
15.1612
15.1646
15.1715
15.1816
15.1941
15.2077
15.2204
15.2303
15.2353
15.2345
15.2277
15.2158
15.2006
15.1841
15.1685
15.1554
15.1457
15.1402
15.1393
15.161
15.1617
15.1659
15.1738
15.1846
15.1974
15.211
15.2236
15.2334
15.2384
15.2377
15.2311
15.2193
15.2039
15.1868
15.17
15.1551
15.1435
15.1362
15.134
15.1562
15.1578
15.1633
15.1726
15.185
15.1993
15.2142
15.228
15.2386
15.2443
15.244
15.2373
15.2249
15.208
15.1886
15.169
15.1511
15.1365
15.1266
15.1226
15.1468
15.1495
15.1565
15.1678
15.1829
15.2002
15.2181
15.2347
15.2478
15.2552
15.2556
15.2485
15.2342
15.214
15.1903
15.1659
15.1433
15.1243
15.1106
15.1041
15.1325
15.1361
15.1447
15.1589
15.178
15.2
15.2228
15.2445
15.2623
15.2728
15.2743
15.2665
15.2492
15.2233
15.1922
15.1606
15.1314
15.1061
15.0868
15.0767
15.113
15.117
15.1268
15.1445
15.1698
15.1984
15.2283
15.2579
15.2837
15.2989
15.3021
15.2937
15.2726
15.2377
15.1942
15.1525
15.115
15.0813
15.0531
15.0374
15.088
15.0916
15.1004
15.122
15.1579
15.1952
15.2334
15.2749
15.3154
15.3372
15.3416
15.3336
15.3097
15.2604
15.1945
15.1398
15.0944
15.0503
15.0072
14.9799
15.0582
15.0602
15.0603
15.0851
15.1449
15.1973
15.2356
15.2928
15.3653
15.3943
15.3925
15.3898
15.3722
15.3
15.1935
15.1179
15.0729
15.0168
14.9451
14.8935
15.0236
15.0259
14.9894
15.011
15.1278
15.1981
15.213
15.2922
15.4532
15.4894
15.4422
15.4615
15.4887
15.37
15.1536
15.0591
15.058
14.9923
14.8617
14.7542
15.0456
15.0358
14.8657
14.8714
15.1644
15.2754
15.1403
15.276
15.6627
15.6713
15.4553
15.543
15.758
15.5377
15.0648
14.9708
15.1169
15.0316
14.7613
14.5078
15.0149
14.918
14.5225
14.4878
15.276
15.3734
14.8089
15.0509
15.9218
15.9503
15.2408
15.5112
16.2187
15.718
14.735
14.6697
15.1604
15.1523
14.6432
13.987
15.4409
14.8101
13.7902
14.51
15.8656
15.5176
14.6253
15.1109
16.4347
16.3578
15.4344
15.8358
16.8805
16.2162
14.6126
14.429
15.3184
15.8089
14.8089
12.7985
17.4044
11.8894
11.0526
15.9388
16.4531
13.3956
14.0528
15.7152
15.6854
15.2504
16.1504
16.1855
16.1278
16.203
15.2262
12.9403
13.7224
17.4799
16.4796
9.15289
23.7401
2.02389
3.17505
21.9761
18.1263
7.06284
12.7684
18.7064
14.0768
12.4619
17.7937
16.4757
13.9401
16.1356
16.9917
7.64835
7.56649
22.4431
22.6042
-1.66048
3.9068
0.0225123
0.635509
3.76805
2.5955
0.650738
2.2439
3.23316
1.62526
1.41868
2.98647
2.61042
1.36774
2.26485
2.90008
1.18658
0.746698
3.53392
3.90263
0.176544
-0.033735
0.0637655
0.0500513
-0.0389058
-0.0125496
0.0570689
0.0234875
-0.0129771
0.0105035
0.022685
0.0066362
0.0130353
0.0276127
-0.00323235
0.000634092
0.0608453
0.0506119
-0.0326785
-0.0252114
0.0874651
0.00737038
0.0229404
0.0236018
0.00542382
0.00122054
0.0160473
0.0175628
0.0092002
0.00629343
0.008972
0.0140042
0.0118061
0.00471542
0.0111919
0.0169175
0.0257129
0.0226615
0.00898602
0.00963226
0.036354
0.0173469
0.0181919
0.0197152
0.0145534
0.0115699
0.0161902
0.0191708
0.0176626
0.0125358
0.0125375
0.018464
0.0182965
0.0127639
0.0140195
0.0220104
0.0238976
0.0208048
0.0156867
0.015869
0.0243173
0.0174064
0.0189705
0.0187294
0.0159765
0.0159533
0.0182854
0.0180759
0.0172921
0.0169029
0.0173275
0.0180351
0.0183754
0.0176832
0.0180649
0.0201039
0.02225
0.0214169
0.0182874
0.0180686
0.0216325
0.0181941
0.018305
0.0183856
0.0177446
0.0173842
0.0179963
0.0183915
0.0181947
0.0174313
0.0176796
0.0185812
0.0185593
0.0181141
0.0186215
0.0199765
0.0207451
0.0203201
0.0194178
0.0194277
0.020286
0.0184548
0.0186842
0.0186766
0.0184191
0.0183971
0.0186045
0.01861
0.0185312
0.0183974
0.0184598
0.0186875
0.0187733
0.0188825
0.0191621
0.0196548
0.020079
0.0200586
0.0197155
0.0196409
0.0199218
0.0188124
0.0189798
0.0190043
0.0189246
0.0189436
0.0190177
0.0189775
0.0189286
0.018915
0.0189311
0.0189936
0.019081
0.0192311
0.0193991
0.0196033
0.0198064
0.0198491
0.0197338
0.0196839
0.0197609
0.0191332
0.0192291
0.0192708
0.0192755
0.0193142
0.0193645
0.0193251
0.0192583
0.0192376
0.0192397
0.0192707
0.0193272
0.0194177
0.0195108
0.0196041
0.0196939
0.0197273
0.0196961
0.0196721
0.0196838
0.0193885
0.0194248
0.0194607
0.0195024
0.0195637
0.0196446
0.0196224
0.0195288
0.0194983
0.0194929
0.0195001
0.0195215
0.0195541
0.0195849
0.0196119
0.0196393
0.0196537
0.0196502
0.0196404
0.0196359
)
;

boundaryField
{
    top
    {
        type            prghTotalPressure;
        rho             rho;
        psi             none;
        gamma           1;
        p0              uniform 0;
        value           nonuniform List<scalar> 
20
(
0.01962
0.01962
0.01962
0.01962
0.01962
0.01962
0.01962
0.01962
0.0196199
0.0196199
0.0196199
0.0196199
0.0196198
0.0196198
0.0196198
0.0196199
0.01962
0.01962
0.01962
0.01962
)
;
        rho             rho;
    }
    left
    {
        type            fixedFluxPressure;
        gradient        uniform 0;
        value           nonuniform List<scalar> 
40
(
14.9654
14.9637
14.9641
14.967
14.9729
14.982
14.9947
15.011
15.0306
15.0526
15.0756
15.0981
15.1185
15.1356
15.1487
15.1572
15.1613
15.161
15.1562
15.1468
15.1325
15.113
15.088
15.0582
15.0236
15.0456
15.0149
15.4409
17.4044
23.7401
3.9068
-0.033735
0.00737038
0.0173469
0.0174064
0.0181941
0.0184548
0.0188124
0.0191332
0.0193885
)
;
    }
    right
    {
        type            fixedFluxPressure;
        gradient        uniform 0;
        value           nonuniform List<scalar> 
40
(
14.9628
14.9613
14.9616
14.9643
14.9698
14.9785
14.9907
15.0063
15.0252
15.0462
15.0681
15.0892
15.1079
15.123
15.1336
15.1391
15.1393
15.134
15.1226
15.1041
15.0767
15.0374
14.9799
14.8935
14.7542
14.5078
13.987
12.7985
9.15289
-1.66048
0.176544
0.0874651
0.036354
0.0243173
0.0216325
0.020286
0.0199218
0.0197609
0.0196838
0.0196359
)
;
    }
    bottom
    {
        type            fixedFluxPressure;
        gradient        nonuniform List<scalar> 
20
(
-2.8829e-07
-2.66797e-06
-2.4396e-05
-0.000194943
-0.00128343
-0.00645788
-0.0228103
-0.0584891
-0.123664
-0.155622
-0.15561
-0.123615
-0.0584416
-0.0227811
-0.00643997
-0.00127652
-0.00019322
-2.4089e-05
-2.62263e-06
-2.82224e-07
)
;
        value           nonuniform List<scalar> 
20
(
14.9654
14.9666
14.9661
14.9631
14.9575
14.95
14.9415
14.9334
14.927
14.9234
14.9231
14.9263
14.9323
14.94
14.948
14.9553
14.9606
14.9633
14.9637
14.9628
)
;
    }
    front
    {
        type            empty;
    }
    back
    {
        type            empty;
    }
    frontAndBack
    {
        type            empty;
    }
}


// ************************************************************************* //
