/*--------------------------------*- C++ -*----------------------------------*\
  =========                 |
  \\      /  F ield         | OpenFOAM: The Open Source CFD Toolbox
   \\    /   O peration     | Website:  https://openfoam.org
    \\  /    A nd           | Version:  10
     \\/     M anipulation  |
\*---------------------------------------------------------------------------*/
FoamFile
{
    format      ascii;
    class       surfaceScalarField;
    location    "0.01";
    object      phi;
}
// * * * * * * * * * * * * * * * * * * * * * * * * * * * * * * * * * * * * * //

dimensions      [0 3 -1 0 0 0 0];

internalField   nonuniform List<scalar> 
1540
(
1.22137e-13
-1.22363e-13
4.72856e-13
-3.50977e-13
9.38433e-13
-4.65844e-13
1.39268e-12
-4.54517e-13
1.7259e-12
-3.33488e-13
1.8521e-12
-1.26461e-13
1.72124e-12
1.30595e-13
1.33045e-12
3.90522e-13
7.23253e-13
6.06927e-13
-4.49314e-15
7.27479e-13
-7.3189e-13
7.2713e-13
-1.33834e-12
6.06185e-13
-1.72854e-12
3.89931e-13
-1.8591e-12
1.303e-13
-1.7346e-12
-1.24763e-13
-1.39909e-12
-3.3577e-13
-9.41413e-13
-4.57943e-13
-4.77833e-13
-4.63861e-13
-1.24768e-13
-3.53358e-13
-1.24915e-13
3.5765e-13
-4.80271e-13
1.16621e-12
-1.15983e-12
2.16695e-12
-1.46687e-12
3.11734e-12
-1.4052e-12
3.80217e-12
-1.01861e-12
4.04419e-12
-3.68771e-13
3.73855e-12
4.35933e-13
2.88168e-12
1.24711e-12
1.56776e-12
1.92055e-12
-1.24672e-16
2.29507e-12
-1.56801e-12
2.29472e-12
-2.88152e-12
1.91941e-12
-3.73978e-12
1.24789e-12
-4.04756e-12
4.37796e-13
-3.79967e-12
-3.7295e-13
-3.1167e-12
-1.01903e-12
-2.16738e-12
-1.40755e-12
-1.16487e-12
-1.46666e-12
-3.58159e-13
-1.16037e-12
-4.83224e-13
5.26534e-13
-1.00707e-12
1.6436e-12
-2.27719e-12
2.98875e-12
-2.81232e-12
4.25515e-12
-2.67191e-12
5.1621e-12
-1.92586e-12
5.47102e-12
-6.77987e-13
5.03839e-12
8.6826e-13
3.87188e-12
2.41332e-12
2.10065e-12
3.69148e-12
-1.7116e-15
4.39713e-12
-2.10396e-12
4.39667e-12
-3.87526e-12
3.69041e-12
-5.04021e-12
2.41255e-12
-5.47167e-12
8.68953e-13
-5.16481e-12
-6.80099e-13
-4.25575e-12
-1.92839e-12
-2.98835e-12
-2.67525e-12
-1.64193e-12
-2.81338e-12
-5.26148e-13
-2.27645e-12
-1.00952e-12
6.40497e-13
-1.64784e-12
1.98052e-12
-3.61751e-12
3.58413e-12
-4.41624e-12
5.0953e-12
-4.18337e-12
6.17513e-12
-3.006e-12
6.51706e-12
-1.02021e-12
5.95302e-12
1.43199e-12
4.54366e-12
3.82238e-12
2.4483e-12
5.78653e-12
-4.56398e-15
6.84969e-12
-2.45721e-12
6.84901e-12
-4.55176e-12
5.78466e-12
-5.95978e-12
3.82027e-12
-6.51965e-12
1.42853e-12
-6.18052e-12
-1.01953e-12
-5.09937e-12
-3.00983e-12
-3.58593e-12
-4.18899e-12
-1.98004e-12
-4.41958e-12
-6.41536e-13
-3.61525e-12
-1.65121e-12
7.19982e-13
-2.36809e-12
2.21452e-12
-5.11234e-12
4.00303e-12
-6.20505e-12
5.68889e-12
-5.86953e-12
6.87061e-12
-4.18802e-12
7.17163e-12
-1.32153e-12
6.42294e-12
2.18039e-12
4.8069e-12
5.43812e-12
2.55011e-12
8.04303e-12
-6.24516e-15
9.40575e-12
-2.56226e-12
9.40472e-12
-4.81783e-12
8.03994e-12
-6.43202e-12
5.43416e-12
-7.18032e-12
2.17654e-12
-6.87592e-12
-1.32422e-12
-5.6932e-12
-4.19284e-12
-4.00704e-12
-5.87545e-12
-2.21614e-12
-6.21077e-12
-7.22235e-13
-5.10946e-12
-2.37359e-12
7.5859e-13
-3.12694e-12
2.31792e-12
-6.67196e-12
4.17682e-12
-8.06425e-12
5.90717e-12
-7.60018e-12
7.05085e-12
-5.33199e-12
7.17984e-12
-1.45082e-12
6.17456e-12
3.18537e-12
4.41371e-12
7.19867e-12
2.27408e-12
1.01824e-11
-6.93518e-15
1.16865e-11
-2.28771e-12
1.16852e-11
-4.42584e-12
1.01778e-11
-6.18394e-12
7.19197e-12
-7.18651e-12
3.17883e-12
-7.05574e-12
-1.45528e-12
-5.91133e-12
-5.33753e-12
-4.18158e-12
-7.60548e-12
-2.32315e-12
-8.06949e-12
-7.62063e-13
-6.67084e-12
-3.1358e-12
7.35856e-13
-3.86306e-12
2.22961e-12
-8.166e-12
3.9878e-12
-9.82272e-12
5.57022e-12
-9.1829e-12
6.48192e-12
-6.24398e-12
6.3028e-12
-1.27199e-12
5.12854e-12
4.35934e-12
3.44792e-12
8.879e-12
1.70573e-12
1.19243e-11
-7.15441e-15
1.33991e-11
-1.71969e-12
1.33974e-11
-3.46139e-12
1.19192e-11
-5.14049e-12
8.87078e-12
-6.31278e-12
4.35083e-12
-6.48676e-12
-1.28159e-12
-5.57399e-12
-6.25058e-12
-3.9904e-12
-9.18936e-12
-2.23198e-12
-9.8282e-12
-7.38829e-13
-8.16428e-12
-3.87477e-12
6.34548e-13
-4.49787e-12
1.90313e-12
-9.43486e-12
3.36927e-12
-1.12892e-11
4.62665e-12
-1.04406e-11
5.19048e-12
-6.8081e-12
4.72729e-12
-8.09089e-13
3.61707e-12
5.46927e-12
2.30418e-12
1.01916e-11
1.09519e-12
1.3133e-11
-7.65688e-15
1.45016e-11
-1.11023e-12
1.44997e-11
-2.31881e-12
1.31275e-11
-3.63044e-12
1.01821e-11
-4.73665e-12
5.45676e-12
-5.19767e-12
-8.20848e-13
-4.62948e-12
-6.81905e-12
-3.36903e-12
-1.04501e-11
-1.90298e-12
-1.12945e-11
-6.36815e-13
-9.43074e-12
-4.51172e-12
4.51632e-13
-4.94975e-12
1.33595e-12
-1.03195e-11
2.33726e-12
-1.22907e-11
3.15649e-12
-1.12601e-11
3.41923e-12
-7.07112e-12
2.91727e-12
-3.07402e-13
2.10215e-12
6.28411e-12
1.28248e-12
1.1011e-11
5.89149e-13
1.3826e-11
-8.63029e-15
1.50991e-11
-6.06066e-13
1.50969e-11
-1.29837e-12
1.38195e-11
-2.11634e-12
1.09998e-11
-2.92877e-12
6.26892e-12
-3.42648e-12
-3.23408e-13
-3.15999e-12
-7.08581e-12
-2.33856e-12
-1.12718e-11
-1.33553e-12
-1.22978e-11
-4.53069e-13
-1.03135e-11
-4.96493e-12
2.04694e-13
-5.15469e-12
5.89342e-13
-1.07044e-11
1.01263e-12
-1.27143e-11
1.34513e-12
-1.15929e-11
1.42153e-12
-7.14779e-12
1.17438e-12
-6.05254e-14
8.07562e-13
6.65066e-12
4.72567e-13
1.13457e-11
2.07415e-13
1.40909e-11
-1.00627e-14
1.53163e-11
-2.26976e-13
1.53135e-11
-4.90331e-13
1.40826e-11
-8.22633e-13
1.13319e-11
-1.18559e-12
6.63161e-12
-1.42923e-12
-8.00361e-14
-1.34871e-12
-7.16659e-12
-1.0142e-12
-1.16066e-11
-5.89994e-13
-1.27223e-11
-2.06355e-13
-1.06974e-11
-5.17141e-12
-6.79466e-14
-5.08698e-12
-2.25138e-13
-1.05474e-11
-4.18406e-13
-1.25213e-11
-5.72097e-13
-1.14394e-11
-6.0066e-13
-7.1195e-12
-4.83131e-13
-1.7832e-13
-3.38465e-13
6.50573e-12
-2.09471e-13
1.12165e-11
-1.03606e-13
1.39848e-11
-1.18339e-14
1.52243e-11
8.07178e-14
1.52207e-11
1.88892e-13
1.39742e-11
3.21514e-13
1.1199e-11
4.70202e-13
6.48267e-12
5.93607e-13
-2.03697e-13
5.68287e-13
-7.14153e-12
4.16649e-13
-1.14552e-11
2.24042e-13
-1.253e-11
6.57553e-14
-1.05394e-11
-5.10579e-12
-3.23887e-13
-4.76333e-12
-9.87285e-13
-9.88429e-12
-1.76188e-12
-1.1747e-11
-2.39249e-12
-1.08091e-11
-2.55679e-12
-6.95546e-12
-2.11816e-12
-6.17206e-13
-1.49707e-12
5.88439e-12
-9.05956e-13
1.06251e-11
-4.23427e-13
1.3502e-11
-1.38424e-14
1.48145e-11
3.96768e-13
1.48099e-11
8.82261e-13
1.34884e-11
1.47796e-12
1.0603e-11
2.10447e-12
5.85591e-12
2.54777e-12
-6.47247e-13
2.38696e-12
-6.98096e-12
1.75896e-12
-1.08274e-11
9.85433e-13
-1.17567e-11
3.21089e-13
-9.87527e-12
-4.78482e-12
-5.23147e-13
-4.2404e-12
-1.58544e-12
-8.82224e-12
-2.8308e-12
-1.05019e-11
-3.89303e-12
-9.74709e-12
-4.30794e-12
-6.5408e-12
-3.79836e-12
-1.12703e-12
-2.80205e-12
4.88783e-12
-1.73173e-12
9.55452e-12
-8.16558e-13
1.25866e-11
-1.60275e-14
1.40137e-11
7.85733e-13
1.40079e-11
1.70455e-12
1.25694e-11
2.78027e-12
9.52708e-12
3.78189e-12
4.85406e-12
4.29585e-12
-1.16144e-12
3.88461e-12
-6.56996e-12
2.82596e-12
-9.76902e-12
1.58234e-12
-1.05133e-11
5.19558e-13
-8.81273e-12
-4.26538e-12
-6.41209e-13
-3.59941e-12
-1.947e-12
-7.51667e-12
-3.49722e-12
-8.95187e-12
-4.89292e-12
-8.35163e-12
-5.64333e-12
-5.79062e-12
-5.34513e-12
-1.42546e-12
-4.17121e-12
3.71368e-12
-2.69291e-12
8.07599e-12
-1.30842e-12
1.12018e-11
-1.82696e-14
1.27233e-11
1.27318e-12
1.27162e-11
2.66143e-12
1.11809e-11
4.14497e-12
8.04331e-12
5.32344e-12
3.67536e-12
5.62598e-12
-1.4642e-12
4.88037e-12
-5.82458e-12
3.48955e-12
-8.37842e-12
1.94159e-12
-8.96557e-12
6.36275e-13
-7.50765e-12
-3.62921e-12
-6.73375e-13
-2.92623e-12
-2.05344e-12
-6.13683e-12
-3.71263e-12
-7.29289e-12
-5.27086e-12
-6.79362e-12
-6.28069e-12
-4.78102e-12
-6.29426e-12
-1.41212e-12
-5.25383e-12
2.67304e-12
-3.63253e-12
6.45447e-12
-1.83942e-12
9.40851e-12
-2.06139e-14
1.09043e-11
1.79929e-12
1.0896e-11
3.59533e-12
9.38462e-12
5.22021e-12
6.41822e-12
6.26442e-12
2.63094e-12
6.25571e-12
-1.45571e-12
5.25259e-12
-4.82167e-12
3.70097e-12
-6.82702e-12
2.04541e-12
-7.31022e-12
6.66884e-13
-6.12934e-12
-2.96243e-12
-6.3225e-13
-2.29417e-12
-1.93772e-12
-4.83157e-12
-3.51789e-12
-5.71294e-12
-5.03185e-12
-5.27987e-12
-6.10455e-12
-3.70853e-12
-6.35259e-12
-1.16428e-12
-5.62059e-12
1.94083e-12
-4.1412e-12
4.97487e-12
-2.17695e-12
7.44405e-12
-2.37783e-14
8.7509e-12
2.12994e-12
8.74212e-12
4.09543e-12
7.41893e-12
5.5765e-12
4.93696e-12
6.31199e-12
1.89525e-12
6.07008e-12
-1.214e-12
5.00622e-12
-3.75801e-12
3.501e-12
-5.32199e-12
1.92601e-12
-5.73543e-12
6.23618e-13
-4.82716e-12
-2.33891e-12
-5.44599e-13
-1.74975e-12
-1.67852e-12
-3.69784e-12
-3.05376e-12
-4.3379e-12
-4.37519e-12
-3.95863e-12
-5.3438e-12
-2.74011e-12
-5.66662e-12
-8.4166e-13
-5.18243e-12
1.45645e-12
-3.95315e-12
3.7454e-12
-2.13302e-12
5.62373e-12
-2.86907e-14
6.64638e-12
2.07558e-12
6.63766e-12
3.89549e-12
5.59883e-12
5.12554e-12
3.70671e-12
5.61348e-12
1.40713e-12
5.29794e-12
-8.98647e-13
4.33998e-12
-2.80023e-12
3.0296e-12
-4.0118e-12
1.66205e-12
-4.36807e-12
5.33254e-13
-3.69856e-12
-1.80575e-12
-4.39445e-13
-1.31048e-12
-1.36317e-12
-2.77429e-12
-2.48403e-12
-3.21722e-12
-3.55446e-12
-2.88839e-12
-4.34099e-12
-1.95377e-12
-4.62994e-12
-5.52892e-13
-4.28748e-12
1.1138e-12
-3.31364e-12
2.77138e-12
-1.81337e-12
4.12327e-12
-3.52553e-14
4.86808e-12
1.7425e-12
4.85972e-12
3.24161e-12
4.09955e-12
4.21563e-12
2.73251e-12
4.56175e-12
1.06083e-12
4.28051e-12
-6.17581e-13
3.50587e-12
-2.02576e-12
2.44897e-12
-2.95508e-12
1.33923e-12
-3.25851e-12
4.2406e-13
-2.78357e-12
-1.38178e-12
-3.3813e-13
-9.72507e-13
-1.05699e-12
-2.05561e-12
-1.93076e-12
-2.34363e-12
-2.75694e-12
-2.06238e-12
-3.35533e-12
-1.35556e-12
-3.57424e-12
-3.3415e-13
-3.31528e-12
8.5468e-13
-2.56994e-12
2.02586e-12
-1.41725e-12
2.97041e-12
-4.25206e-14
3.49318e-12
1.33177e-12
3.48526e-12
2.4818e-12
2.94935e-12
3.2257e-12
1.98845e-12
3.48711e-12
7.99261e-13
3.27493e-12
-4.05566e-13
2.68853e-12
-1.43952e-12
1.87809e-12
-2.1448e-12
1.02116e-12
-2.40175e-12
3.16781e-13
-2.07936e-12
-1.06508e-12
-2.52538e-13
-7.20119e-13
-7.96582e-13
-1.51173e-12
-1.4601e-12
-1.68028e-12
-2.07992e-12
-1.44272e-12
-2.51786e-12
-9.17777e-13
-2.66999e-12
-1.82183e-13
-2.46789e-12
6.52413e-13
-1.91109e-12
1.4689e-12
-1.05984e-12
2.119e-12
-4.95126e-14
2.48269e-12
9.60731e-13
2.47486e-12
1.80587e-12
2.10405e-12
2.35731e-12
1.43685e-12
2.5586e-12
5.97817e-13
2.40967e-12
-2.56788e-13
1.98159e-12
-1.0116e-12
1.37816e-12
-1.54152e-12
7.40667e-13
-1.76442e-12
2.21599e-13
-1.56045e-12
-8.43558e-13
-1.90848e-13
-5.29415e-13
-5.9683e-13
-1.1059e-12
-1.09645e-12
-1.18082e-12
-1.55446e-12
-9.84867e-13
-1.86609e-12
-6.06304e-13
-1.9656e-12
-8.28294e-14
-1.80297e-12
4.89623e-13
-1.39131e-12
1.05709e-12
-7.74212e-13
1.50175e-12
-5.44512e-14
1.76278e-12
6.66051e-13
1.7542e-12
1.26944e-12
1.50051e-12
1.66793e-12
1.03822e-12
1.82337e-12
4.42229e-13
1.71925e-12
-1.52817e-13
1.41135e-12
-7.0386e-13
9.64857e-13
-1.09518e-12
5.07379e-13
-1.3071e-12
1.44081e-13
-1.19731e-12
-6.99554e-13
-1.47287e-13
-3.82269e-13
-4.62856e-13
-7.90489e-13
-8.40854e-13
-8.02979e-13
-1.17367e-12
-6.52213e-13
-1.385e-12
-3.95129e-13
-1.44621e-12
-2.177e-14
-1.30545e-12
3.48709e-13
-9.98481e-13
7.49971e-13
-5.51607e-13
1.05473e-12
-5.76588e-14
1.26868e-12
4.46048e-13
1.25035e-12
8.64365e-13
1.08205e-12
1.1438e-12
7.58639e-13
1.26554e-12
3.20341e-13
1.18735e-12
-7.47669e-14
9.65968e-13
-4.82627e-13
6.25517e-13
-7.54876e-13
3.14722e-13
-9.96454e-13
7.99481e-14
-9.62692e-13
-6.19686e-13
-1.33632e-13
-2.48778e-13
-3.88717e-13
-5.3556e-13
-6.83577e-13
-5.08278e-13
-9.19373e-13
-4.16575e-13
-1.03161e-12
-2.83045e-13
-1.08665e-12
3.31103e-14
-9.27452e-13
1.89359e-13
-6.87239e-13
5.09604e-13
-3.63171e-13
7.30507e-13
-4.88665e-14
9.54221e-13
2.85976e-13
9.15356e-13
5.61408e-13
8.06466e-13
7.51034e-13
5.68866e-13
8.73747e-13
1.97482e-13
7.74538e-13
2.4295e-14
6.05188e-13
-3.13425e-13
3.27569e-13
-4.7741e-13
1.46456e-13
-8.15496e-13
2.1844e-14
-8.38241e-13
-5.97922e-13
-1.59727e-13
-8.91968e-14
-3.76401e-13
-3.19046e-13
-5.8758e-13
-2.97265e-13
-7.34364e-13
-2.69956e-13
-7.5438e-13
-2.63193e-13
-7.63296e-13
4.18647e-14
-5.77249e-13
3.15168e-15
-4.29737e-13
3.61933e-13
-1.62416e-13
4.63029e-13
1.45015e-14
7.77148e-13
1.5798e-13
7.71723e-13
2.77982e-13
6.86309e-13
4.05515e-13
4.41179e-13
5.40521e-13
6.23238e-14
4.55847e-13
1.08816e-13
2.58073e-13
-1.15807e-13
3.4471e-14
-2.53965e-13
-1.94097e-14
-7.61779e-13
-6.30843e-15
-8.51508e-13
-6.04318e-13
-2.14116e-13
1.24768e-13
-3.44661e-13
-1.8867e-13
-4.62116e-13
-1.79984e-13
-6.07921e-13
-1.24326e-13
-4.0054e-13
-4.70747e-13
-3.29494e-13
-2.93523e-14
-2.09088e-13
-1.17424e-13
-2.14512e-13
3.67189e-13
1.97934e-13
5.04152e-14
2.66311e-13
7.08606e-13
5.84475e-14
9.79421e-13
-6.31948e-14
8.07788e-13
1.82422e-13
1.95399e-13
5.40115e-13
-2.95531e-13
8.76027e-14
5.61164e-13
-3.41999e-13
3.13629e-13
-4.41313e-13
-1.54822e-13
-2.25341e-13
-9.77925e-13
-6.15839e-15
-1.07087e-12
-6.10567e-13
-6.07548e-13
7.32157e-13
-1.43855e-13
-6.52537e-13
-3.01888e-13
-2.21299e-14
-7.982e-13
3.71805e-13
1.69661e-13
-1.43879e-12
8.83386e-13
-7.43257e-13
5.1068e-13
2.55105e-13
1.99691e-14
8.57724e-13
1.1183e-12
-1.04809e-12
1.26644e-12
5.60295e-13
-6.01213e-14
2.30581e-12
-1.02251e-12
1.77e-12
-1.44966e-13
-6.82311e-13
8.38248e-13
-1.27892e-12
-2.57976e-13
1.65722e-12
-1.3047e-12
1.36018e-12
-9.16427e-13
-5.43276e-13
2.67966e-14
-1.92133e-12
3.27264e-13
-1.37152e-12
-2.83394e-13
-1.00177e-12
1.73376e-12
6.68029e-13
-2.3225e-12
5.06548e-13
1.39177e-13
-1.93921e-12
2.81739e-12
1.23957e-12
-4.61774e-12
3.6148e-12
-3.11866e-12
1.43408e-12
2.43565e-12
-6.68161e-13
2.9598e-12
2.55557e-12
-4.27199e-12
4.5313e-12
-1.4156e-12
-1.51736e-14
6.85212e-12
-2.82161e-12
4.57627e-12
4.81415e-13
-3.98551e-12
2.78618e-12
-3.58384e-12
-7.77812e-13
5.22104e-12
-3.54743e-12
4.12962e-12
-2.22279e-12
-1.86809e-12
1.63332e-13
-4.30763e-12
1.0853e-12
-2.29367e-12
8.01831e-13
-1.66955e-12
3.40318e-12
3.59176e-12
-7.58395e-12
7.17193e-13
3.0136e-12
-2.4053e-12
5.93974e-12
3.67406e-12
-1.06972e-11
7.9194e-12
-7.36414e-12
1.99175e-12
8.36316e-12
-1.29709e-12
6.2485e-12
6.54865e-12
-1.21179e-11
1.01148e-11
-4.98189e-12
-2.96165e-13
1.72629e-11
-6.38479e-12
1.06648e-11
1.22454e-12
-1.1595e-11
6.00497e-12
-8.36441e-12
-1.25525e-12
1.24811e-11
-8.24687e-12
1.11211e-11
-4.51124e-12
-5.60386e-12
1.6573e-12
-1.04763e-11
5.39775e-12
-6.03426e-12
6.19954e-12
7.15999e-12
-3.75688e-12
7.35335e-12
-7.77739e-12
-6.28062e-12
1.66475e-11
-3.26613e-12
2.92517e-12
1.30485e-11
-2.7012e-11
1.52147e-11
-9.53035e-12
-5.79582e-13
2.41573e-11
-5.53911e-12
1.1208e-11
1.32054e-11
-3.08624e-11
2.18742e-11
-1.36507e-11
-9.24253e-13
4.00613e-11
-2.03e-11
3.00405e-11
-1.05133e-12
-3.08438e-11
1.48987e-11
-2.43145e-11
1.58456e-12
2.57951e-11
-2.24197e-11
3.51253e-11
-2.0811e-11
-7.21261e-12
1.24942e-12
-3.25368e-11
2.11563e-11
-2.59412e-11
2.73559e-11
2.60726e-11
-2.98295e-11
1.15534e-11
6.74183e-12
-3.47319e-11
6.29327e-11
-1.80403e-11
-1.37665e-11
2.69319e-11
-7.19842e-11
2.44668e-11
-7.06529e-12
-2.75615e-11
7.61856e-11
-4.25775e-11
2.6224e-11
2.5248e-11
-9.86879e-11
5.57728e-11
-4.41755e-11
-1.58011e-11
1.11635e-10
-6.70076e-11
8.1247e-11
9.41806e-12
-1.07269e-10
5.81192e-11
-7.30156e-11
1.28633e-11
7.1051e-11
-5.84142e-11
1.06403e-10
-6.19157e-11
-3.71109e-12
7.72114e-12
-1.02174e-10
8.17565e-11
-9.99766e-11
1.09112e-10
3.22932e-11
-6.21227e-11
-3.12096e-11
7.02447e-11
-8.18661e-11
1.13589e-10
-5.10777e-11
-4.45549e-11
1.04495e-11
-1.33511e-10
-5.3926e-12
8.77684e-12
-3.97223e-11
1.10515e-10
-4.59911e-11
3.24928e-11
1.72442e-11
-1.61923e-10
5.74013e-11
-8.43326e-11
-4.44446e-12
1.73481e-10
-3.94026e-11
1.16205e-10
1.33703e-11
-1.60042e-10
8.00488e-11
-1.39694e-10
4.83025e-11
1.02797e-10
-2.6039e-11
1.80744e-10
-5.57776e-11
2.60275e-11
1.53022e-11
-1.73253e-10
9.04104e-11
-1.75085e-10
1.99523e-10
-7.94017e-11
1.72791e-11
-2.1949e-11
1.27921e-11
3.45764e-11
5.70639e-11
-2.56177e-11
1.56393e-11
-7.1592e-11
-8.75369e-11
-2.82108e-11
-3.46043e-11
1.78061e-11
6.44985e-11
6.81221e-12
4.34868e-11
-2.91007e-11
-1.2601e-10
-3.00163e-11
-8.34169e-11
1.86085e-11
1.24856e-10
5.01243e-11
8.46895e-11
2.68586e-11
-1.36777e-10
-1.11392e-11
-1.01696e-10
-5.86345e-12
9.75217e-11
6.66326e-11
1.08248e-10
8.84435e-11
4.21672e-12
-2.29242e-11
-6.18856e-11
-1.22968e-10
-7.50407e-11
7.65546e-11
-1.02486e-11
2.7528e-11
-1.21133e-11
1.4657e-11
1.54263e-11
2.95246e-11
2.02516e-11
1.08144e-11
-3.30131e-11
-3.42719e-11
-4.53586e-11
-2.22585e-11
5.21726e-12
1.3923e-11
3.98625e-11
8.84185e-12
-3.31239e-11
-5.30237e-11
-6.58598e-11
-5.06807e-11
1.49918e-11
4.40048e-11
7.55952e-11
2.40863e-11
-2.44974e-12
-5.87315e-11
-5.13784e-11
-5.27672e-11
1.08306e-11
3.53129e-11
7.03635e-11
4.87155e-11
5.10954e-11
2.34851e-11
-4.17437e-12
-6.61554e-12
-5.49981e-11
-2.42168e-11
2.15566e-11
1.10905e-11
1.64378e-11
-2.82403e-12
2.85718e-11
3.13079e-12
2.35701e-11
1.25679e-11
1.37761e-12
-9.01976e-12
-1.2684e-11
-2.39755e-11
-7.30245e-12
-2.19837e-12
-7.85391e-12
1.75233e-11
-1.08796e-11
-1.19932e-11
-2.3507e-11
-4.01658e-11
-2.25078e-11
2.33677e-12
1.50255e-12
2.90546e-11
-2.63126e-12
-1.05265e-11
-1.91501e-11
-4.17017e-11
-2.15918e-11
-7.19416e-12
8.05648e-13
1.91158e-11
2.24059e-11
1.64765e-11
2.61247e-11
3.05193e-12
6.80926e-12
-1.30376e-11
-8.12698e-12
8.51917e-12
2.09699e-12
1.43411e-11
8.81139e-12
2.18577e-11
1.44133e-11
1.79685e-11
9.13237e-12
6.65882e-12
3.79485e-13
-3.93086e-12
7.17353e-13
-7.64005e-12
1.06673e-12
-8.20302e-12
-2.59467e-13
-9.5531e-12
-7.66847e-12
-1.60977e-11
-1.41972e-11
-1.59789e-11
-7.40211e-12
-5.29225e-12
-4.17422e-12
-5.8589e-12
-1.22257e-11
-1.10984e-11
-2.21629e-11
-1.16543e-11
-1.8956e-11
-2.40104e-12
-6.12803e-12
9.57817e-12
6.14792e-12
1.3849e-11
3.79842e-12
9.15901e-12
-6.01581e-12
1.6875e-12
2.50347e-12
4.79155e-12
9.54972e-12
8.93741e-12
1.77121e-11
1.19687e-11
1.49374e-11
1.17221e-11
6.90563e-12
7.7114e-12
8.00855e-14
4.36205e-12
-4.29046e-12
2.9543e-12
-6.79505e-12
1.45125e-12
-8.04983e-12
-4.25569e-12
-1.03905e-11
-9.62904e-12
-1.06053e-11
-7.70259e-12
-7.21849e-12
-7.45315e-12
-6.10812e-12
-1.20141e-11
-6.53718e-12
-1.69164e-11
-6.75182e-12
-1.55931e-11
-3.7241e-12
-8.94845e-12
2.93374e-12
-2.25039e-12
7.15112e-12
6.39679e-13
6.26917e-12
-7.62956e-13
3.09035e-12
1.7406e-12
3.16687e-12
6.38303e-12
7.76528e-12
1.31139e-11
1.07123e-11
1.19906e-11
1.07152e-11
6.90296e-12
8.95229e-12
1.84316e-12
6.68268e-12
-2.02067e-12
4.42152e-12
-4.53371e-12
2.16629e-12
-5.79442e-12
-1.41269e-12
-6.81138e-12
-4.89932e-12
-7.11853e-12
-6.11768e-12
-5.99995e-12
-7.21978e-12
-5.00586e-12
-9.07955e-12
-4.67724e-12
-1.10522e-11
-4.77902e-12
-1.11234e-11
-3.65277e-12
-7.91044e-12
-2.78997e-13
-3.46141e-12
2.70226e-12
-6.62725e-13
3.47068e-12
-2.97069e-13
2.72487e-12
1.44361e-12
2.12387e-12
4.25928e-12
5.73275e-12
9.50517e-12
8.24417e-12
9.47928e-12
8.78008e-12
6.36718e-12
8.03383e-12
2.58954e-12
6.62228e-12
-6.08989e-13
4.76289e-12
-2.67419e-12
2.7067e-12
-3.7381e-12
3.61195e-13
-4.46575e-12
-2.01325e-12
-4.74396e-12
-3.64841e-12
-4.36466e-12
-4.8173e-12
-3.83685e-12
-5.75473e-12
-3.73968e-12
-6.64165e-12
-3.89198e-12
-6.82324e-12
-3.47106e-12
-5.3238e-12
-1.7783e-12
-2.83731e-12
2.15905e-13
-9.22097e-13
1.5556e-12
-2.56812e-13
2.05972e-12
1.18684e-12
1.49179e-12
2.76756e-12
4.01526e-12
6.98177e-12
5.90205e-12
7.59256e-12
6.56704e-12
5.70227e-12
6.29484e-12
2.86181e-12
5.45256e-12
2.33359e-13
4.22036e-12
-1.44191e-12
2.72638e-12
-2.24405e-12
1.16044e-12
-2.89974e-12
-3.67691e-13
-3.21576e-12
-1.58811e-12
-3.14417e-12
-2.45515e-12
-2.96975e-12
-2.99067e-12
-3.2041e-12
-3.42006e-12
-3.46252e-12
-3.55287e-12
-3.33818e-12
-2.93261e-12
-2.3985e-12
-1.74993e-12
-9.66696e-13
-6.96916e-13
5.02661e-13
-1.77972e-13
1.54084e-12
1.00888e-12
1.32775e-12
3.12985e-12
4.4861e-12
4.99195e-12
4.60902e-12
3.54976e-12
2.36844e-12
1.5156e-12
8.24052e-13
1.98462e-13
-3.21177e-13
-6.91437e-13
-8.88809e-13
-1.03328e-12
-1.1006e-12
-9.61736e-13
-6.49815e-13
-3.34138e-13
-1.12789e-13
)
;

boundaryField
{
    top
    {
        type            calculated;
        value           nonuniform List<scalar> 
20
(
1.43983e-12
5.17969e-12
6.23633e-12
5.19644e-12
3.24476e-12
1.29265e-12
-2.60578e-13
-1.3912e-12
-2.20817e-12
-2.59015e-12
-2.62452e-12
-2.59947e-12
-3.00671e-12
-3.31803e-12
-3.27085e-12
-2.53734e-12
-1.2786e-12
1.87003e-13
1.31951e-12
8.96093e-13
)
;
    }
    left
    {
        type            calculated;
        value           uniform 0;
    }
    right
    {
        type            calculated;
        value           uniform 0;
    }
    bottom
    {
        type            calculated;
        value           uniform 0;
    }
    front
    {
        type            empty;
        value           nonuniform List<scalar> 0();
    }
    back
    {
        type            empty;
        value           nonuniform List<scalar> 0();
    }
    frontAndBack
    {
        type            empty;
        value           nonuniform List<scalar> 0();
    }
}


// ************************************************************************* //
