/*--------------------------------*- C++ -*----------------------------------*\
  =========                 |
  \\      /  F ield         | OpenFOAM: The Open Source CFD Toolbox
   \\    /   O peration     | Website:  https://openfoam.org
    \\  /    A nd           | Version:  10
     \\/     M anipulation  |
\*---------------------------------------------------------------------------*/
FoamFile
{
    format      ascii;
    class       volScalarField;
    location    "0.01";
    object      T;
}
// * * * * * * * * * * * * * * * * * * * * * * * * * * * * * * * * * * * * * //

dimensions      [0 0 0 1 0 0 0];

internalField   nonuniform List<scalar> 
800
(
300
300
300
300
300
300
300
300.001
300.001
300.002
300.002
300.001
300.001
300
300
300
300
300
300
300
300
300
300
300
300
300.001
300.002
300.005
300.01
300.012
300.012
300.01
300.005
300.002
300.001
300
300
300
300
300
300
300
300
300
300.001
300.005
300.016
300.036
300.071
300.088
300.088
300.071
300.036
300.016
300.005
300.001
300
300
300
300
300
300
300
300.001
300.008
300.035
300.103
300.214
300.404
300.497
300.497
300.404
300.214
300.103
300.035
300.008
300.001
300
300
300
300
300
300.001
300.009
300.047
300.191
300.524
300.987
301.729
302.095
302.095
301.729
300.987
300.524
300.191
300.047
300.009
300.001
300
300
300
300.001
300.006
300.038
300.2
300.762
301.947
303.211
304.947
305.794
305.794
304.946
303.211
301.946
300.762
300.2
300.038
300.006
300.001
300
300
300.002
300.019
300.119
300.575
302.032
304.733
306.572
307.983
308.607
308.606
307.983
306.571
304.732
302.031
300.575
300.119
300.019
300.002
300
300.001
300.007
300.048
300.279
301.197
303.555
306.82
308.646
309.452
309.724
309.724
309.451
308.646
306.818
303.554
301.197
300.278
300.048
300.007
300.001
300.002
300.013
300.091
300.516
302.119
305.622
308.355
309.53
309.888
309.975
309.975
309.888
309.53
308.353
305.619
302.118
300.515
300.091
300.013
300.002
300.002
300.016
300.114
300.646
302.617
306.682
309.038
309.801
309.972
310
310
309.972
309.801
309.036
306.678
302.614
300.645
300.114
300.016
300.002
300.002
300.015
300.114
300.667
302.725
306.855
309.146
309.834
309.975
309.997
309.997
309.975
309.833
309.144
306.85
302.72
300.666
300.114
300.015
300.002
300.001
300.01
300.086
300.543
302.336
306.097
308.77
309.704
309.937
309.982
309.982
309.936
309.703
308.766
306.089
302.329
300.542
300.086
300.01
300.001
300
300.004
300.039
300.283
301.39
304.235
307.668
309.212
309.75
309.891
309.891
309.749
309.209
307.661
304.225
301.385
300.282
300.039
300.004
300
300
300.001
300.014
300.131
300.769
302.772
305.946
307.849
309
309.409
309.408
308.997
307.841
305.936
302.762
300.765
300.13
300.014
300.001
300
300
300
300.004
300.042
300.281
301.139
302.857
304.695
306.711
307.562
307.559
306.703
304.682
302.845
301.132
300.279
300.042
300.004
300
300
300
300
300.001
300.01
300.068
300.298
300.847
301.734
303.004
303.606
303.603
302.996
301.725
300.841
300.295
300.067
300.01
300.001
300
300
300
300
300
300.002
300.012
300.054
300.166
300.392
300.764
300.953
300.952
300.761
300.389
300.165
300.054
300.012
300.002
300
300
300
300
300
300
300
300.002
300.007
300.023
300.056
300.113
300.141
300.141
300.112
300.056
300.023
300.007
300.002
300
300
300
300
300
300
300
300
300
300.001
300.002
300.005
300.01
300.012
300.012
300.01
300.005
300.002
300.001
300
300
300
300
300
300
300
300
300
300
300
300
300
300.001
300
300
300.001
300
300
300
300
300
300
300
300
300
300
300
300
300
300
300
300
300
300
300
300
300
300
300
300
300
300
300
300
300
300
300
300
300
300
300
300
300
300
300
300
300
300
300
300
300
300
300
300
300
300
300
300
300
300
300
300
300
300
300
300
300
300
300
300
300
300
300
300
300
300
300
300
300
300
300
300
300
300
300
300
300
300
300
300
300
300
300
300
300
300
300
300
300
300
300
300
300
300
300
300
300
300
300
300
300
300
300
300
300
300
300
300
300
300
300
300
300
300
300
300
300
300
300
300
300
300
300
300
300
300
300
300
300
300
300
300
300
300
300
300
300
300
300
300
300
300
300
300
300
300
300
300
300
300
300
300
300
300
300
300
300
300
300
300
300
300
300
300
300
300
300
300
300
300
300
300
300
300
300
300
300
300
300
300
300
300
300
300
300
300
300
300
300
300
300
300
300
300
300
300
300
300
300
300
300
300
300
300
300
300
300
300
300
300
300
300
300
300
300
300
300
300
300
300
300
300
300
300
300
300
300
300
300
300
300
300
300
300
300
300
300
300
300
300
300
300
300
300
300
300
300
300
300
300
300
300
300
300
300
300
300
300
300
300
300
300
300
300
300
300
300
300
300
300
300
300
300
300
300
300
300
300
300
300
300
300
300
300
300
300
300
300
300
300
300
300
300
300
300
300
300
300
300
300
300
300
300
300
300
300
300
300
300
300
300
300
300
300
300
300
300
300
300
300
300
300
300
300
300
300
300
300
300
300
300
300
300
300
300
300
300
300
300
300
300
300
300
300
300
300
300
300
300
300
300
300
300
300
300
300
300
300
300
300
300
300
300
300
300
300
300
300
300
300
300
300
300
300
300
300
300
300
300
300
300
300
300
300
300
300
300
300
300
300
300
300
300
300
300
300
300
300
300
300
300
300
300
300
)
;

boundaryField
{
    top
    {
        type            inletOutlet;
        inletValue      uniform 300;
        value           nonuniform List<scalar> 
20
(
300
300
300
300
300
300
300
300
300
300
300
300
300
300
300
300
300
300
300
300
)
;
    }
    left
    {
        type            zeroGradient;
    }
    right
    {
        type            zeroGradient;
    }
    bottom
    {
        type            zeroGradient;
    }
    front
    {
        type            empty;
    }
    back
    {
        type            empty;
    }
    frontAndBack
    {
        type            empty;
    }
}


// ************************************************************************* //
