/*--------------------------------*- C++ -*----------------------------------*\
  =========                 |
  \\      /  F ield         | OpenFOAM: The Open Source CFD Toolbox
   \\    /   O peration     | Website:  https://openfoam.org
    \\  /    A nd           | Version:  10
     \\/     M anipulation  |
\*---------------------------------------------------------------------------*/
FoamFile
{
    format      ascii;
    class       volVectorField;
    location    "0.01";
    object      U;
}
// * * * * * * * * * * * * * * * * * * * * * * * * * * * * * * * * * * * * * //

dimensions      [0 1 -1 0 0 0 0];

internalField   nonuniform List<vector> 
800
(
(3.11358e-06 -3.21663e-06 0)
(5.25807e-05 -1.45976e-05 0)
(0.000139299 -2.09462e-05 0)
(0.000235872 -2.10253e-05 0)
(0.00031847 -1.58058e-05 0)
(0.00036715 -6.52875e-06 0)
(0.000367777 5.01789e-06 0)
(0.000314816 1.67e-05 0)
(0.000212184 2.65656e-05 0)
(7.43227e-05 3.20041e-05 0)
(-7.60822e-05 3.19596e-05 0)
(-0.000213818 2.64559e-05 0)
(-0.000316303 1.65635e-05 0)
(-0.00036924 4.90961e-06 0)
(-0.000368721 -6.36724e-06 0)
(-0.000319926 -1.61349e-05 0)
(-0.000236859 -2.15085e-05 0)
(-0.000140109 -2.0817e-05 0)
(-5.33477e-05 -1.50043e-05 0)
(-3.46703e-06 -3.58708e-06 0)
(1.43705e-05 -5.21802e-05 0)
(0.000139495 -0.000135776 0)
(0.000329958 -0.000176127 0)
(0.000535485 -0.000170445 0)
(0.000708097 -0.000124399 0)
(0.000807299 -4.63102e-05 0)
(0.000803571 5.04989e-05 0)
(0.000685266 0.000148495 0)
(0.000461341 0.000230031 0)
(0.000162659 0.000275487 0)
(-0.000162687 0.000275409 0)
(-0.000461327 0.000229844 0)
(-0.000685369 0.000148504 0)
(-0.000803995 5.06599e-05 0)
(-0.00080739 -4.63716e-05 0)
(-0.000707804 -0.00012473 0)
(-0.000535402 -0.000171076 0)
(-0.000329801 -0.000175781 0)
(-0.000139412 -0.000136163 0)
(-1.4576e-05 -5.28278e-05 0)
(2.25993e-05 -0.000143087 0)
(0.000201072 -0.000331665 0)
(0.000459247 -0.000413651 0)
(0.00073435 -0.000394333 0)
(0.000964334 -0.000285022 0)
(0.00109517 -0.000102206 0)
(0.00108603 0.000124604 0)
(0.000922707 0.000352869 0)
(0.000619388 0.000542913 0)
(0.00021776 0.000648291 0)
(-0.000218426 0.000648215 0)
(-0.000620043 0.000542721 0)
(-0.000923211 0.000352932 0)
(-0.00108628 0.000124846 0)
(-0.00109547 -0.000102761 0)
(-0.000964646 -0.00028533 0)
(-0.000734382 -0.00039488 0)
(-0.000458947 -0.000413666 0)
(-0.000200769 -0.000331639 0)
(-2.27284e-05 -0.00014363 0)
(2.77999e-05 -0.000261646 0)
(0.000243687 -0.000580906 0)
(0.000551785 -0.000712404 0)
(0.000880004 -0.000675666 0)
(0.00115499 -0.00048693 0)
(0.00130863 -0.000170025 0)
(0.00128897 0.000223143 0)
(0.00108568 0.000612816 0)
(0.000723345 0.000936631 0)
(0.000252785 0.00111385 0)
(-0.00025459 0.00111374 0)
(-0.000725062 0.000936346 0)
(-0.00108715 0.00061255 0)
(-0.00128987 0.000222898 0)
(-0.00130941 -0.000170185 0)
(-0.00115592 -0.000487548 0)
(-0.000880589 -0.000676571 0)
(-0.000551846 -0.000712859 0)
(-0.000243697 -0.000580578 0)
(-2.80734e-05 -0.000262211 0)
(3.1623e-05 -0.000399398 0)
(0.000273287 -0.00086805 0)
(0.000616638 -0.00105632 0)
(0.000983396 -0.00100063 0)
(0.00128925 -0.000718799 0)
(0.00145024 -0.000239778 0)
(0.00140515 0.000351996 0)
(0.00115781 0.000918657 0)
(0.000756629 0.00138124 0)
(0.000261401 0.00162841 0)
(-0.000263873 0.00162824 0)
(-0.000758948 0.00138075 0)
(-0.00115983 0.000918042 0)
(-0.00140688 0.000351295 0)
(-0.0014516 -0.000239966 0)
(-0.00129021 -0.000719667 0)
(-0.000984199 -0.00100182 0)
(-0.000617147 -0.00105725 0)
(-0.000273678 -0.000867549 0)
(-3.19994e-05 -0.000400265 0)
(3.39038e-05 -0.000549452 0)
(0.000287203 -0.00117866 0)
(0.000644954 -0.0014281 0)
(0.00102538 -0.00135037 0)
(0.00133424 -0.000959611 0)
(0.00147294 -0.000288548 0)
(0.00137919 0.000527468 0)
(0.00108607 0.0012634 0)
(0.000681371 0.00183275 0)
(0.000230237 0.00212704 0)
(-0.000232995 0.0021268 0)
(-0.000683954 0.00183197 0)
(-0.00108822 0.00126233 0)
(-0.00138079 0.000526433 0)
(-0.00147405 -0.000289229 0)
(-0.00133508 -0.00096063 0)
(-0.00102625 -0.00135151 0)
(-0.000645908 -0.00142923 0)
(-0.000288074 -0.0011783 0)
(-3.4403e-05 -0.0005509 0)
(3.35741e-05 -0.000701748 0)
(0.000277898 -0.00149072 0)
(0.000619167 -0.00179848 0)
(0.00097548 -0.00169059 0)
(0.00124632 -0.00117186 0)
(0.00132649 -0.00028482 0)
(0.00117816 0.000751155 0)
(0.000872786 0.00161731 0)
(0.000517716 0.00223127 0)
(0.000169481 0.00253526 0)
(-0.000172297 0.00253496 0)
(-0.000520462 0.00223029 0)
(-0.000875347 0.0016158 0)
(-0.00118035 0.000749637 0)
(-0.00132794 -0.000286221 0)
(-0.00124712 -0.00117305 0)
(-0.000976034 -0.00169175 0)
(-0.000619584 -0.00179959 0)
(-0.000278455 -0.00149049 0)
(-3.40709e-05 -0.000703847 0)
(2.96391e-05 -0.000841943 0)
(0.000239019 -0.0017741 0)
(0.000527087 -0.00212918 0)
(0.0008196 -0.00198091 0)
(0.00102022 -0.00132031 0)
(0.00103144 -0.000214419 0)
(0.000857105 0.000989624 0)
(0.000596047 0.00192523 0)
(0.000335569 0.0025303 0)
(0.000106302 0.00281674 0)
(-0.000109321 0.0028164 0)
(-0.000338531 0.00252925 0)
(-0.000598855 0.00192345 0)
(-0.000859409 0.000987512 0)
(-0.00103309 -0.000216556 0)
(-0.00102117 -0.00132206 0)
(-0.000819774 -0.00198251 0)
(-0.000526926 -0.00213029 0)
(-0.000239215 -0.00177356 0)
(-3.012e-05 -0.000844535 0)
(2.17235e-05 -0.000953325 0)
(0.000169441 -0.00199533 0)
(0.000368527 -0.002382 0)
(0.000565091 -0.00219101 0)
(0.000686226 -0.00139854 0)
(0.000660278 -0.000106899 0)
(0.000513148 0.00119178 0)
(0.000336676 0.00214242 0)
(0.000181653 0.00271856 0)
(5.56273e-05 0.00298165 0)
(-5.90366e-05 0.00298124 0)
(-0.000184928 0.00271738 0)
(-0.000339696 0.00214037 0)
(-0.000515717 0.00118904 0)
(-0.000662137 -0.000109622 0)
(-0.000687254 -0.0014011 0)
(-0.00056546 -0.00219315 0)
(-0.000368462 -0.00238328 0)
(-0.000169473 -0.00199436 0)
(-2.21362e-05 -0.000956252 0)
(1.04088e-05 -0.00102057 0)
(7.62833e-05 -0.00212552 0)
(0.000161079 -0.00252749 0)
(0.000242239 -0.00230633 0)
(0.000288738 -0.00142752 0)
(0.00027104 -2.13042e-05 0)
(0.000202284 0.00131534 0)
(0.000126341 0.00225821 0)
(6.51177e-05 0.00281094 0)
(1.84908e-05 0.00305821 0)
(-2.24688e-05 0.00305772 0)
(-6.88534e-05 0.00280948 0)
(-0.000129615 0.00225574 0)
(-0.000204915 0.00131192 0)
(-0.000272908 -2.50521e-05 0)
(-0.000289786 -0.00143091 0)
(-0.000242667 -0.00230892 0)
(-0.000161143 -0.00252904 0)
(-7.64069e-05 -0.00212427 0)
(-1.08655e-05 -0.00102378 0)
(-2.34991e-06 -0.00103434 0)
(-2.60851e-05 -0.00214813 0)
(-6.46308e-05 -0.00255021 0)
(-0.000104231 -0.00232359 0)
(-0.000124957 -0.0014311 0)
(-0.000112298 -6.32224e-06 0)
(-8.17924e-05 0.00133835 0)
(-5.32637e-05 0.00227841 0)
(-3.00489e-05 0.00282559 0)
(-1.10417e-05 0.00306904 0)
(6.36118e-06 0.00306841 0)
(2.56809e-05 0.00282373 0)
(4.94906e-05 0.0022753 0)
(7.88353e-05 0.00133414 0)
(0.000110367 -1.09982e-05 0)
(0.000123962 -0.00143522 0)
(0.00010379 -0.00232657 0)
(6.45099e-05 -0.00255192 0)
(2.58618e-05 -0.00214667 0)
(1.80809e-06 -0.00103792 0)
(-1.45564e-05 -0.000993821 0)
(-0.000121919 -0.00206307 0)
(-0.000275863 -0.00245017 0)
(-0.000430595 -0.00224424 0)
(-0.000520211 -0.00141513 0)
(-0.000486903 -7.02872e-05 0)
(-0.000366502 0.00125786 0)
(-0.00023647 0.00220582 0)
(-0.000127839 0.00276829 0)
(-4.17202e-05 0.00302123 0)
(3.62437e-05 0.00302042 0)
(0.000122774 0.00276589 0)
(0.0002322 0.00220189 0)
(0.000363267 0.00125272 0)
(0.000484709 -7.57587e-05 0)
(0.000518848 -0.00141989 0)
(0.000429845 -0.00224767 0)
(0.000275571 -0.00245203 0)
(0.00012158 -0.00206141 0)
(1.39134e-05 -0.000997872 0)
(-2.39819e-05 -0.000906527 0)
(-0.00019663 -0.00188479 0)
(-0.000441636 -0.0022424 0)
(-0.000692531 -0.00207275 0)
(-0.000857024 -0.0013618 0)
(-0.000844599 -0.000176082 0)
(-0.000674569 0.00108804 0)
(-0.000451451 0.00203706 0)
(-0.000248032 0.00263063 0)
(-8.02729e-05 0.00290447 0)
(7.3931e-05 0.00290343 0)
(0.000242206 0.00262756 0)
(0.000446584 0.0020321 0)
(0.000670818 0.00108178 0)
(0.000841821 -0.000182558 0)
(0.000855041 -0.00136728 0)
(0.000691305 -0.00207678 0)
(0.000441056 -0.00224454 0)
(0.000196109 -0.00188298 0)
(2.32199e-05 -0.000911193 0)
(-2.94473e-05 -0.000786932 0)
(-0.00024102 -0.00164088 0)
(-0.000542128 -0.00195495 0)
(-0.000858833 -0.0018215 0)
(-0.00109454 -0.00124585 0)
(-0.00114313 -0.000264928 0)
(-0.000978285 0.00086079 0)
(-0.00069242 0.00177524 0)
(-0.0003964 0.00239919 0)
(-0.00013025 0.00269788 0)
(0.000123023 0.00269658 0)
(0.000389722 0.00239534 0)
(0.000686695 0.00176918 0)
(0.000973566 0.000853524 0)
(0.00113928 -0.000272289 0)
(0.00109159 -0.00125216 0)
(0.00085692 -0.00182635 0)
(0.000541067 -0.00195747 0)
(0.00024016 -0.00163907 0)
(2.85043e-05 -0.000792429 0)
(-3.0795e-05 -0.00065242 0)
(-0.000253325 -0.00136521 0)
(-0.000572111 -0.00162517 0)
(-0.000914783 -0.00151771 0)
(-0.00119309 -0.00106485 0)
(-0.00130492 -0.000295259 0)
(-0.00119156 0.000630603 0)
(-0.000906366 0.0014547 0)
(-0.000551955 0.00207335 0)
(-0.000186482 0.00238203 0)
(0.00017833 0.00238048 0)
(0.000544239 0.0020688 0)
(0.000899332 0.00144773 0)
(0.00118526 0.000622506 0)
(0.00129945 -0.000303504 0)
(0.00118879 -0.00107228 0)
(0.000911919 -0.0015237 0)
(0.000570432 -0.00162828 0)
(0.000252074 -0.00136359 0)
(2.96431e-05 -0.000659038 0)
(-2.8679e-05 -0.00051954 0)
(-0.000238185 -0.00109122 0)
(-0.000540157 -0.001294 0)
(-0.000867487 -0.00120232 0)
(-0.00114493 -0.000849057 0)
(-0.00128893 -0.00026505 0)
(-0.00123743 0.000450407 0)
(-0.00100324 0.00113548 0)
(-0.000645829 0.00168523 0)
(-0.000224229 0.00197116 0)
(0.000214804 0.00196943 0)
(0.000636595 0.00168026 0)
(0.00099429 0.00112799 0)
(0.00122896 0.000441606 0)
(0.0012814 -0.000274371 0)
(0.00113894 -0.000858035 0)
(0.000863383 -0.00120984 0)
(0.000537633 -0.00129798 0)
(0.000236384 -0.00109006 0)
(2.72472e-05 -0.000527645 0)
(-2.44602e-05 -0.000400564 0)
(-0.000205486 -0.000844304 0)
(-0.000468213 -0.000994437 0)
(-0.000752571 -0.000913838 0)
(-0.000996359 -0.000638951 0)
(-0.00113636 -0.000202153 0)
(-0.00112179 0.000330846 0)
(-0.000943752 0.000860163 0)
(-0.000627709 0.00129592 0)
(-0.000222468 0.00153026 0)
(0.000211062 0.0015285 0)
(0.00061626 0.00129087 0)
(0.00093231 0.000852464 0)
(0.00111075 0.000321343 0)
(0.00112641 -0.000212819 0)
(0.00098826 -0.000649889 0)
(0.000746787 -0.000923334 0)
(0.000464527 -0.000999673 0)
(0.000202969 -0.000843934 0)
(2.26848e-05 -0.00041063 0)
(-1.95735e-05 -0.00030184 0)
(-0.000165971 -0.000637877 0)
(-0.000380677 -0.000743958 0)
(-0.00061165 -0.000673407 0)
(-0.000808473 -0.000461227 0)
(-0.000924461 -0.000137491 0)
(-0.000922002 0.000251277 0)
(-0.000787232 0.00063962 0)
(-0.000531243 0.000958874 0)
(-0.000191239 0.00113388 0)
(0.000177209 0.00113216 0)
(0.000517028 0.00095397 0)
(0.000772843 0.000631829 0)
(0.000907959 0.000241026 0)
(0.000911553 -0.000149687 0)
(0.000797555 -0.000474446 0)
(0.000603401 -0.000685357 0)
(0.000375172 -0.000751018 0)
(0.000162333 -0.00063881 0)
(1.73234e-05 -0.000314521 0)
(-1.49937e-05 -0.000224433 0)
(-0.000127613 -0.000474487 0)
(-0.000295723 -0.000545651 0)
(-0.000475182 -0.000484862 0)
(-0.000625832 -0.000323206 0)
(-0.000713631 -8.59019e-05 0)
(-0.000712138 0.000193078 0)
(-0.000609904 0.000469415 0)
(-0.000413725 0.000693856 0)
(-0.000151231 0.00081781 0)
(0.000134319 0.000816173 0)
(0.00039647 0.000689301 0)
(0.000592122 0.000461716 0)
(0.000694445 0.000182179 0)
(0.000696867 -9.96088e-05 0)
(0.000610905 -0.000338881 0)
(0.000463082 -0.000499761 0)
(0.000287222 -0.000555404 0)
(0.000122218 -0.000477591 0)
(1.21078e-05 -0.000240692 0)
(-1.11742e-05 -0.000166028 0)
(-9.48387e-05 -0.000349846 0)
(-0.00022341 -0.000393958 0)
(-0.000359324 -0.000342274 0)
(-0.000470992 -0.000221061 0)
(-0.000534113 -4.9257e-05 0)
(-0.000530842 0.000147946 0)
(-0.000453604 0.000341194 0)
(-0.000308115 0.000496052 0)
(-0.000114776 0.000582028 0)
(9.51525e-05 0.000580458 0)
(0.000287872 0.000492304 0)
(0.000431975 0.000334108 0)
(0.000508664 0.000136805 0)
(0.000512237 -6.41086e-05 0)
(0.000450259 -0.000239096 0)
(0.00034104 -0.000360511 0)
(0.000209788 -0.000407854 0)
(8.64934e-05 -0.000356659 0)
(7.35091e-06 -0.000187385 0)
(-8.37938e-06 -0.000122485 0)
(-6.95161e-05 -0.000256704 0)
(-0.000167675 -0.000279912 0)
(-0.000269675 -0.000236523 0)
(-0.000350601 -0.000147607 0)
(-0.000394284 -2.46667e-05 0)
(-0.000389064 0.000112149 0)
(-0.000330537 0.000246122 0)
(-0.000224205 0.000352096 0)
(-8.55132e-05 0.000412362 0)
(6.38906e-05 0.000410714 0)
(0.000201587 0.000350158 0)
(0.000304632 0.000240788 0)
(0.000361424 0.000101677 0)
(0.000365727 -3.96525e-05 0)
(0.000321568 -0.00016729 0)
(0.000241357 -0.000257859 0)
(0.000145218 -0.000300391 0)
(5.62363e-05 -0.000269976 0)
(3.10405e-06 -0.000151381 0)
(-7.20966e-06 -8.96608e-05 0)
(-5.26239e-05 -0.00018658 0)
(-0.000128972 -0.000194523 0)
(-0.000205738 -0.000159409 0)
(-0.000262095 -9.65059e-05 0)
(-0.00029075 -7.75036e-06 0)
(-0.000283627 8.22618e-05 0)
(-0.000237997 0.000175493 0)
(-0.000159969 0.000248102 0)
(-6.24151e-05 0.000293652 0)
(4.04995e-05 0.00029095 0)
(0.000136893 0.000249793 0)
(0.000207641 0.000174204 0)
(0.000249642 7.44474e-05 0)
(0.000253894 -1.94812e-05 0)
(0.000221858 -0.000115509 0)
(0.000161155 -0.000181535 0)
(9.10316e-05 -0.000225314 0)
(3.11508e-05 -0.000211553 0)
(-3.82016e-07 -0.000129511 0)
(-7.02241e-06 -6.24001e-05 0)
(-4.45294e-05 -0.000131097 0)
(-0.000107067 -0.000129092 0)
(-0.000163555 -0.000104519 0)
(-0.000195998 -6.61287e-05 0)
(-0.000214406 -4.2036e-06 0)
(-0.000206264 5.05144e-05 0)
(-0.000166178 0.000120169 0)
(-0.000107219 0.000171105 0)
(-4.2032e-05 0.000213167 0)
(2.32343e-05 0.000207694 0)
(8.94278e-05 0.000179766 0)
(0.0001327 0.000125847 0)
(0.000167004 4.64781e-05 0)
(0.000168558 -1.22009e-05 0)
(0.000141562 -8.07321e-05 0)
(9.30982e-05 -0.000124037 0)
(4.14439e-05 -0.000177461 0)
(1.03778e-05 -0.000176237 0)
(-2.98477e-06 -0.000119237 0)
(-1.09006e-05 -3.03811e-05 0)
(-4.63124e-05 -7.70844e-05 0)
(-0.000100149 -6.53243e-05 0)
(-0.000139303 -5.07074e-05 0)
(-0.000147328 -3.28146e-05 0)
(-0.000153278 2.3192e-05 0)
(-0.00013687 4.27861e-05 0)
(-9.78599e-05 9.63986e-05 0)
(-5.27078e-05 0.000119823 0)
(-1.73994e-05 0.000171047 0)
(1.086e-05 0.000165994 0)
(5.27543e-05 0.000146031 0)
(6.43635e-05 0.000100493 0)
(9.2689e-05 3.92917e-05 0)
(0.000102052 3.73486e-05 0)
(8.23347e-05 -2.30404e-05 0)
(3.008e-05 -5.77075e-05 0)
(-9.74723e-06 -0.000142545 0)
(-6.24938e-06 -0.000156576 0)
(-2.65917e-06 -0.000113309 0)
(-1.26947e-05 -4.21931e-05 0)
(-5.17881e-05 -9.66738e-05 0)
(-9.35067e-05 -7.65811e-05 0)
(-0.00011179 -7.23222e-05 0)
(-7.73134e-05 -0.000120168 0)
(-8.13308e-05 -4.99733e-05 0)
(-7.12166e-05 -3.7422e-05 0)
(-3.37836e-05 2.10949e-05 0)
(9.60608e-06 1.2616e-05 0)
(3.03172e-05 0.000111588 0)
(1.29807e-05 0.00013769 0)
(2.31977e-05 0.000109759 0)
(7.46896e-06 1.07556e-05 0)
(6.36699e-05 -6.60893e-05 0)
(5.66577e-05 1.37847e-05 0)
(2.21407e-06 -3.79462e-05 0)
(-6.15845e-05 -9.29224e-05 0)
(-8.63921e-05 -0.000225919 0)
(-2.23806e-05 -0.000209094 0)
(-2.8886e-06 -0.000128295 0)
(-4.82218e-05 0.000136238 0)
(-6.90634e-05 9.22028e-05 0)
(-7.4431e-05 0.00011374 0)
(-0.00010881 0.000167901 0)
(-1.64847e-05 -7.37683e-05 0)
(5.39302e-05 4.85017e-05 0)
(6.98517e-05 0.000126295 0)
(7.71499e-05 0.000204852 0)
(0.00014203 5.01964e-05 0)
(0.000180585 0.000203422 0)
(6.73311e-05 0.000411575 0)
(-4.61654e-05 0.000344105 0)
(-0.000115429 7.8332e-05 0)
(3.76499e-05 -2.08605e-05 0)
(4.97094e-05 0.000289399 0)
(-8.91826e-05 0.000247821 0)
(-0.000191282 7.63552e-05 0)
(-0.000133234 -0.000186313 0)
(4.46222e-05 -0.000150631 0)
(4.78602e-05 -2.31652e-05 0)
(-5.21087e-05 -0.000113527 0)
(-6.24534e-05 -0.000409599 0)
(4.38698e-05 -0.00015207 0)
(-9.56991e-05 -0.000155876 0)
(2.30543e-05 -0.000697466 0)
(0.000343816 -0.000355013 0)
(0.000344094 -7.7871e-05 0)
(0.000133134 -4.69854e-05 0)
(0.000248479 -0.000569787 0)
(0.000575314 -0.000204992 0)
(0.000336144 0.000345938 0)
(-0.000185357 0.000168228 0)
(-0.00026988 -0.00055704 0)
(0.000222693 -0.000615639 0)
(0.000216519 0.000191057 0)
(-0.000293518 0.000184403 0)
(-0.00051338 -0.000346688 0)
(-0.000272415 -0.000850274 0)
(0.000131537 -0.000573401 0)
(0.000115966 -4.44898e-05 0)
(-0.000258501 0.000646458 0)
(0.000169721 0.000634332 0)
(0.000396089 0.00115285 0)
(-0.000185052 0.000873661 0)
(0.000178858 -0.000953146 0)
(0.000955727 5.12785e-05 0)
(0.000807054 0.00127168 0)
(-9.15946e-05 0.00112514 0)
(0.000487784 -0.000518902 0)
(0.00142716 0.000250018 0)
(0.000853628 0.00234836 0)
(-0.000693913 0.00200197 0)
(-0.000565216 -0.000375948 0)
(0.000739372 -0.000478498 0)
(0.000697133 0.00167873 0)
(-0.000773962 0.00200267 0)
(-0.00127705 0.000363452 0)
(-0.000260957 -0.00115338 0)
(0.000727687 -0.000661319 0)
(0.000558384 0.00121906 0)
(0.000172376 -0.000698662 0)
(0.00103413 -0.00230497 0)
(0.000792293 0.000246479 0)
(-0.00131014 -0.000953171 0)
(-0.000130002 -0.00466798 0)
(0.00237816 -0.00265634 0)
(0.00201745 0.00154007 0)
(-0.00189416 -0.000267211 0)
(0.000147658 -0.00522784 0)
(0.003324 -0.00285268 0)
(0.00254715 0.00376451 0)
(-0.00310436 0.00245179 0)
(-0.00195595 -0.00499498 0)
(0.00201863 -0.00385573 0)
(0.00228828 0.00232333 0)
(-0.00219165 0.00314673 0)
(-0.00406242 -0.00194977 0)
(-0.00109994 -0.00527883 0)
(0.00223746 -0.00411222 0)
(0.00188676 0.00237917 0)
(-0.000510811 0.00071087 0)
(0.00212277 0.00130641 0)
(0.00162554 0.00552114 0)
(-0.00522827 0.00385789 0)
(-0.00269234 -0.00209348 0)
(0.00612408 0.00323648 0)
(0.00269396 0.00887599 0)
(-0.00877044 0.00664083 0)
(-0.00404066 -0.00110946 0)
(0.0102087 0.00158093 0)
(0.00570266 0.0126393 0)
(-0.0110817 0.00977253 0)
(-0.00620473 -0.000955028 0)
(0.0094707 -0.00230926 0)
(0.00794033 0.00760742 0)
(-0.00666725 0.00911483 0)
(-0.0106277 0.00171118 0)
(-0.00199527 -0.00478989 0)
(0.00810438 -0.00366955 0)
(0.00652552 0.00597071 0)
(0.00065315 -0.00357395 0)
(-5.99563e-06 -0.0133112 0)
(-0.00681111 0.00576592 0)
(-0.0096885 -0.00449209 0)
(-0.00836192 -0.01852 0)
(0.00598228 -0.0143716 0)
(-0.00397095 0.00900954 0)
(-0.00685624 -0.000571996 0)
(-0.0089181 -0.0314149 0)
(0.0137316 -0.0187495 0)
(0.00400994 0.0136555 0)
(-0.00597904 0.0100253 0)
(-0.00624057 -0.0352965 0)
(0.01281 -0.0186403 0)
(0.0113692 0.00917294 0)
(-0.00155783 0.0164069 0)
(-0.00763605 -0.0104664 0)
(-0.00269404 -0.0188832 0)
(0.00975787 -0.017015 0)
(0.00764686 0.0144502 0)
(-0.0051305 -0.025449 0)
(-0.00476978 0.0350224 0)
(-0.00657441 0.0323198 0)
(0.00012944 -0.0231216 0)
(-0.00207948 -0.0297317 0)
(-0.0100856 0.0125854 0)
(-0.00761159 0.0217101 0)
(0.0080215 0.000196636 0)
(0.000392012 -0.031619 0)
(-0.00944027 -0.0114644 0)
(-0.00443079 0.0315055 0)
(0.0121924 0.0245169 0)
(0.00837555 -0.0322783 0)
(-0.00570087 -0.0312366 0)
(-0.00102638 0.0153358 0)
(0.00946104 0.0449411 0)
(0.0141568 0.017657 0)
(-0.00153654 -0.0435179 0)
(-0.00805567 -0.0492235 0)
(-0.0142784 0.0555644 0)
(-0.00192908 0.0101952 0)
(-0.000483179 0.00307104 0)
(-0.0017317 0.0108741 0)
(0.00424784 0.00551285 0)
(0.00201595 -0.0108882 0)
(-0.00909861 -0.00337377 0)
(-0.00566751 0.0089975 0)
(0.00691435 0.00721509 0)
(0.00297353 -0.0152826 0)
(-0.012906 -0.0122139 0)
(-0.00636236 0.0197979 0)
(0.0118373 0.014188 0)
(0.00892132 -0.0152891 0)
(-0.0092266 -0.0160247 0)
(-0.00576382 0.014918 0)
(0.00992708 0.0194085 0)
(0.0128317 0.00521671 0)
(0.00213652 -0.00504449 0)
(-0.0058547 -0.00857952 0)
(-0.00698293 0.00931046 0)
(0.000640359 0.00106845 0)
(0.00220489 0.00867465 0)
(-0.00124884 0.0058819 0)
(0.00204227 -0.00296124 0)
(0.00203002 -0.00331275 0)
(-0.0040151 9.64393e-05 0)
(-0.00364276 -0.00331115 0)
(0.00299733 -0.00464007 0)
(0.00215649 -0.00504807 0)
(-0.00672197 -0.00484686 0)
(-0.00447251 0.000577137 0)
(0.0048743 -0.00140468 0)
(0.00287714 -0.00423826 0)
(-0.00650979 -0.00608492 0)
(-0.00557782 -0.00126161 0)
(0.002248 0.00671008 0)
(0.00395227 0.00839742 0)
(0.00109405 0.000430444 0)
(-0.000508843 -0.00485783 0)
(-0.00213741 0.00440059 0)
(-0.000315658 0.00374691 0)
(0.00124354 0.00349323 0)
(0.00243032 0.00339828 0)
(0.00221088 0.001778 0)
(0.000817433 -0.00195196 0)
(2.16885e-05 -0.00302168 0)
(0.000160502 -0.00174445 0)
(0.000186344 -0.00183321 0)
(-0.000502014 -0.00520133 0)
(-0.00220473 -0.00524813 0)
(-0.00211919 -0.000393018 0)
(-0.000891894 -0.00118039 0)
(-0.00123176 -0.00435715 0)
(-0.00322288 -0.00406978 0)
(-0.00424168 7.09183e-05 0)
(-0.0027955 0.00249908 0)
(0.000199649 0.00261318 0)
(0.0013875 0.00200068 0)
(-4.64233e-05 0.000316163 0)
(-0.00108109 0.000434349 0)
(0.000280204 0.00218775 0)
(0.00145688 0.00418366 0)
(0.00232888 0.00341931 0)
(0.00244964 0.00134969 0)
(0.00191833 -0.000164457 0)
(0.00123779 -0.000875053 0)
(0.000747711 -0.00154803 0)
(0.000435025 -0.00185528 0)
(-0.000193657 -0.00233185 0)
(-0.00131249 -0.00238472 0)
(-0.00173192 -0.00152166 0)
(-0.00160217 -0.00124521 0)
(-0.00192023 -0.00150466 0)
(-0.00275451 -0.00161841 0)
(-0.00332001 -0.000779711 0)
(-0.00276612 0.00107163 0)
(-0.00118501 0.00206972 0)
(7.33823e-05 0.00140433 0)
(0.000196058 0.000409235 0)
(-0.000245151 0.000532748 0)
(0.000187975 0.00157394 0)
(0.00114152 0.00302542 0)
(0.00199255 0.00269785 0)
(0.00224284 0.00146762 0)
(0.00201773 0.000238455 0)
(0.0016028 -0.000595401 0)
(0.00111074 -0.00106484 0)
(0.0006324 -0.00132389 0)
(8.63778e-05 -0.00167665 0)
(-0.000609854 -0.00170563 0)
(-0.00113332 -0.00128935 0)
(-0.00139304 -0.00106463 0)
(-0.0016324 -0.00109619 0)
(-0.00197382 -0.00109374 0)
(-0.00227278 -0.000690608 0)
(-0.0020689 0.00019783 0)
(-0.00120147 0.000849315 0)
(-0.000298478 0.000895075 0)
(4.10407e-05 0.000604944 0)
(-5.26669e-05 0.000325353 0)
(0.000116137 0.00103262 0)
(0.00080946 0.00220063 0)
(0.00148701 0.0021188 0)
(0.00178403 0.0013425 0)
(0.00173707 0.000463897 0)
(0.00150079 -0.000240734 0)
(0.00114539 -0.00067763 0)
(0.000741749 -0.000912983 0)
(0.000310559 -0.0011031 0)
(-0.000161251 -0.00114975 0)
(-0.000591964 -0.000998283 0)
(-0.000886911 -0.000857512 0)
(-0.0010691 -0.00084121 0)
(-0.00123134 -0.000850947 0)
(-0.00138181 -0.00069305 0)
(-0.00129823 -0.00024056 0)
(-0.000856493 0.00021214 0)
(-0.000331908 0.000444645 0)
(-4.72499e-05 0.000468425 0)
(-1.48727e-05 0.000261682 0)
(7.504e-05 0.000678242 0)
(0.000563791 0.00159087 0)
(0.00104564 0.00166717 0)
(0.00130566 0.00120216 0)
(0.00133375 0.000567204 0)
(0.00120375 -4.63e-06 0)
(0.000967135 -0.000377204 0)
(0.000696205 -0.000579933 0)
(0.000391695 -0.000716626 0)
(7.75294e-05 -0.00077299 0)
(-0.000212878 -0.000732832 0)
(-0.000428088 -0.000672429 0)
(-0.000554985 -0.000684619 0)
(-0.000642098 -0.000722764 0)
(-0.000716145 -0.000673416 0)
(-0.000686789 -0.00043616 0)
(-0.000489145 -0.000116991 0)
(-0.000232177 0.000169031 0)
(-5.77102e-05 0.000343927 0)
(-4.97039e-06 0.000215906 0)
(8.82731e-05 0.000332647 0)
(0.000454226 0.0010839 0)
(0.000799034 0.00127891 0)
(0.000995269 0.00104137 0)
(0.00101471 0.000615269 0)
(0.000870377 0.000177435 0)
(0.000527095 -0.000114392 0)
(0.000381637 -0.000296399 0)
(0.000234771 -0.000445234 0)
(9.99565e-05 -0.000517833 0)
(-1.92916e-05 -0.000522791 0)
(-0.000111007 -0.000519401 0)
(-0.000163138 -0.000602402 0)
(-0.000193561 -0.000664476 0)
(-0.000219234 -0.000652496 0)
(-0.000216757 -0.000504225 0)
(-0.000164806 -0.000254478 0)
(-0.00010089 3.44013e-05 0)
(-4.04997e-05 0.000261668 0)
(-3.53548e-06 0.000182663 0)
)
;

boundaryField
{
    top
    {
        type            pressureInletOutletVelocity;
        value           nonuniform List<vector> 
20
(
(8.82731e-05 0.000332647 0)
(0.000454226 0.0010839 0)
(0.000799034 0.00127891 0)
(0.000995269 0.00104137 0)
(0.00101471 0.000615269 0)
(0.000870377 0.000177435 0)
(0 -0.000114392 0)
(0 -0.000296399 0)
(0 -0.000445234 0)
(0 -0.000517833 0)
(0 -0.000522791 0)
(0 -0.000519401 0)
(0 -0.000602402 0)
(0 -0.000664476 0)
(0 -0.000652496 0)
(0 -0.000504225 0)
(0 -0.000254478 0)
(-0.00010089 3.44013e-05 0)
(-4.04997e-05 0.000261668 0)
(-3.53548e-06 0.000182663 0)
)
;
    }
    left
    {
        type            noSlip;
    }
    right
    {
        type            noSlip;
    }
    bottom
    {
        type            noSlip;
    }
    front
    {
        type            empty;
    }
    back
    {
        type            empty;
    }
    frontAndBack
    {
        type            empty;
    }
}


// ************************************************************************* //
