/*--------------------------------*- C++ -*----------------------------------*\
  =========                 |
  \\      /  F ield         | OpenFOAM: The Open Source CFD Toolbox
   \\    /   O peration     | Website:  https://openfoam.org
    \\  /    A nd           | Version:  10
     \\/     M anipulation  |
\*---------------------------------------------------------------------------*/
FoamFile
{
    format      ascii;
    class       surfaceScalarField;
    location    "0.1";
    object      alphaPhi.water;
}
// * * * * * * * * * * * * * * * * * * * * * * * * * * * * * * * * * * * * * //

dimensions      [0 3 -1 0 0 0 0];

internalField   nonuniform List<scalar> 
1540
(
4.96627e-14
-4.93513e-14
1.68402e-13
-1.18387e-13
3.89266e-13
-2.20502e-13
6.00008e-13
-2.1038e-13
6.9024e-13
-8.98505e-14
6.93131e-13
-2.52715e-15
6.11796e-13
8.17004e-14
4.01538e-13
2.10626e-13
8.69663e-14
3.14935e-13
-2.398e-13
3.2713e-13
-5.30547e-13
2.91116e-13
-7.92331e-13
2.62152e-13
-9.9488e-13
2.02913e-13
-1.10445e-12
1.09929e-13
-9.8325e-13
-1.20834e-13
-7.49769e-13
-2.33119e-13
-4.37176e-13
-3.12236e-13
-2.33885e-13
-2.02892e-13
-3.67093e-14
-1.96778e-13
-3.65069e-14
2.0433e-13
-2.53332e-13
6.02338e-13
-5.16006e-13
1.06138e-12
-6.79133e-13
1.44076e-12
-5.89347e-13
1.66912e-12
-3.178e-13
1.65787e-12
9.14864e-15
1.39896e-12
3.40981e-13
8.76553e-13
7.33435e-13
1.75939e-13
1.01596e-12
-5.3233e-13
1.0358e-12
-1.2109e-12
9.70059e-13
-1.81137e-12
8.63039e-13
-2.25138e-12
6.43331e-13
-2.37737e-12
2.36324e-13
-2.20561e-12
-2.92222e-13
-1.81434e-12
-6.23996e-13
-1.29723e-12
-8.28931e-13
-6.77093e-13
-8.2262e-13
-1.97256e-13
-6.762e-13
-2.33559e-13
3.10368e-13
-5.63335e-13
9.3642e-13
-1.14164e-12
1.51601e-12
-1.2583e-12
2.01509e-12
-1.08802e-12
2.27735e-12
-5.79637e-13
2.22822e-12
5.86904e-14
1.81049e-12
7.59116e-13
1.15346e-12
1.39088e-12
3.01719e-13
1.86812e-12
-6.83451e-13
2.02139e-12
-1.66582e-12
1.95284e-12
-2.4822e-12
1.67983e-12
-3.03676e-12
1.1983e-12
-3.20231e-12
4.02292e-13
-3.09643e-12
-3.97703e-13
-2.56256e-12
-1.15746e-12
-1.80514e-12
-1.58594e-12
-9.8205e-13
-1.64529e-12
-3.01838e-13
-1.35599e-12
-5.35195e-13
4.19027e-13
-9.81968e-13
1.10793e-12
-1.83012e-12
1.78873e-12
-1.93869e-12
2.36805e-12
-1.66692e-12
2.67329e-12
-8.84457e-13
2.58059e-12
1.51807e-13
2.16804e-12
1.17209e-12
1.34412e-12
2.21521e-12
3.1642e-13
2.89624e-12
-8.13593e-13
3.15182e-12
-1.91711e-12
3.05678e-12
-2.8417e-12
2.60483e-12
-3.43071e-12
1.78773e-12
-3.72883e-12
7.00814e-13
-3.56886e-12
-5.57266e-13
-2.99896e-12
-1.72694e-12
-2.11005e-12
-2.47444e-12
-1.11684e-12
-2.63808e-12
-3.55171e-13
-2.11727e-12
-8.90163e-13
2.37575e-13
-1.21919e-12
9.43515e-13
-2.53568e-12
1.82667e-12
-2.82145e-12
2.5484e-12
-2.38824e-12
2.9219e-12
-1.25753e-12
2.86881e-12
2.05304e-13
2.25099e-12
1.79035e-12
1.41891e-12
3.04771e-12
2.84189e-13
4.03138e-12
-9.29138e-13
4.36556e-12
-2.11232e-12
4.24038e-12
-3.15158e-12
3.64451e-12
-3.84154e-12
2.47811e-12
-4.26244e-12
1.12213e-12
-4.02838e-12
-7.90919e-13
-3.34759e-12
-2.40733e-12
-2.35282e-12
-3.46879e-12
-1.23778e-12
-3.7527e-12
-3.76391e-13
-2.97826e-12
-1.26636e-12
2.82397e-13
-1.50122e-12
1.02204e-12
-3.27495e-12
1.98953e-12
-3.78854e-12
2.75284e-12
-3.15113e-12
3.13393e-12
-1.6382e-12
3.0231e-12
3.16555e-13
2.41469e-12
2.39919e-12
1.37513e-12
4.08768e-12
2.2382e-13
5.18311e-12
-9.83784e-13
5.57357e-12
-2.19615e-12
5.45316e-12
-3.30945e-12
4.75823e-12
-4.17831e-12
3.34734e-12
-4.56146e-12
1.50571e-12
-4.30296e-12
-1.04903e-12
-3.59108e-12
-3.11879e-12
-2.56885e-12
-4.49061e-12
-1.42649e-12
-4.89465e-12
-4.52966e-13
-3.95138e-12
-1.71913e-12
4.08898e-13
-1.90975e-12
1.19807e-12
-4.0637e-12
2.1626e-12
-4.75267e-12
2.93092e-12
-3.91904e-12
3.2698e-12
-1.97666e-12
3.09231e-12
4.94456e-13
2.50593e-12
2.98599e-12
1.37943e-12
5.21458e-12
3.32974e-13
6.22995e-12
-9.43431e-13
6.85039e-12
-2.15956e-12
6.66971e-12
-3.19794e-12
5.79699e-12
-4.0467e-12
4.19646e-12
-4.39252e-12
1.85196e-12
-4.31271e-12
-1.12843e-12
-3.67697e-12
-3.75411e-12
-2.69779e-12
-5.46937e-12
-1.54067e-12
-6.05135e-12
-4.92461e-13
-4.99921e-12
-2.21139e-12
4.26019e-13
-2.33542e-12
1.3334e-12
-4.97067e-12
2.26008e-12
-5.67892e-12
3.0223e-12
-4.68085e-12
3.34939e-12
-2.30333e-12
3.13035e-12
7.13926e-13
2.47442e-12
3.64231e-12
1.66145e-12
6.02794e-12
4.10156e-13
7.48163e-12
-9.36958e-13
8.19791e-12
-2.20698e-12
7.94014e-12
-3.14759e-12
6.73795e-12
-4.07497e-12
5.12421e-12
-4.49621e-12
2.27361e-12
-4.38189e-12
-1.24236e-12
-3.70395e-12
-4.43164e-12
-2.77379e-12
-6.39911e-12
-1.62941e-12
-7.19541e-12
-5.22866e-13
-6.10539e-12
-2.73407e-12
4.92248e-13
-2.82727e-12
1.27975e-12
-5.75776e-12
2.15971e-12
-6.55847e-12
2.96189e-12
-5.48263e-12
3.20667e-12
-2.54773e-12
3.17663e-12
7.44329e-13
2.72373e-12
4.09553e-12
1.85161e-12
6.90042e-12
4.8409e-13
8.84955e-12
-1.05568e-12
9.73809e-12
-2.53828e-12
9.42315e-12
-3.79538e-12
7.99545e-12
-4.34573e-12
5.67491e-12
-4.64123e-12
2.56942e-12
-4.48685e-12
-1.39634e-12
-3.72656e-12
-5.19159e-12
-2.69363e-12
-7.43177e-12
-1.56652e-12
-8.32213e-12
-4.75974e-13
-7.19551e-12
-3.20985e-12
3.33204e-13
-3.16019e-12
1.10192e-12
-6.52619e-12
1.88902e-12
-7.34522e-12
2.57364e-12
-6.1669e-12
3.12834e-12
-3.10206e-12
3.14834e-12
7.24671e-13
2.78968e-12
4.45456e-12
1.87419e-12
7.8163e-12
4.7636e-13
1.02478e-11
-1.13818e-12
1.1353e-11
-2.69854e-12
1.09839e-11
-3.87834e-12
9.17566e-12
-4.52549e-12
6.32244e-12
-4.60965e-12
2.65389e-12
-4.22322e-12
-1.78241e-12
-3.58636e-12
-5.82809e-12
-2.50776e-12
-8.51001e-12
-1.34738e-12
-9.48213e-12
-5.55125e-13
-7.98739e-12
-3.76479e-12
2.97055e-13
-3.4569e-12
9.79578e-13
-7.20835e-12
1.72549e-12
-8.0908e-12
2.53355e-12
-6.97456e-12
3.0913e-12
-3.65947e-12
3.12633e-12
6.8999e-13
2.71312e-12
4.86816e-12
1.73182e-12
8.79799e-12
3.77427e-13
1.16026e-11
-1.14025e-12
1.28712e-11
-2.59274e-12
1.24368e-11
-3.81932e-12
1.04027e-11
-4.52447e-12
7.02797e-12
-4.47608e-12
2.60583e-12
-4.0631e-12
-2.19502e-12
-3.27418e-12
-6.61664e-12
-2.20431e-12
-9.57951e-12
-1.18766e-12
-1.04984e-11
-2.9549e-13
-8.87919e-12
-4.06011e-12
3.45043e-13
-3.80161e-12
9.95525e-13
-7.85849e-12
1.8484e-12
-8.94331e-12
2.48854e-12
-7.61434e-12
2.96567e-12
-4.13622e-12
3.10232e-12
5.53729e-13
2.47985e-12
5.491e-12
1.54711e-12
9.73113e-12
1.91616e-13
1.29585e-11
-1.22973e-12
1.42929e-11
-2.59437e-12
1.38018e-11
-3.76184e-12
1.15705e-11
-4.34402e-12
7.61052e-12
-4.37215e-12
2.63433e-12
-3.79484e-12
-2.77199e-12
-2.99736e-12
-7.4138e-12
-2.07875e-12
-1.04978e-11
-1.10429e-12
-1.14725e-11
-2.95856e-13
-9.68725e-12
-4.35579e-12
2.25816e-13
-4.02711e-12
7.67249e-13
-8.39954e-12
1.27961e-12
-9.45535e-12
1.76593e-12
-8.10037e-12
2.17047e-12
-4.54039e-12
2.24115e-12
4.83414e-13
1.67337e-12
6.05922e-12
8.273e-13
1.05775e-11
-2.34449e-13
1.40206e-11
-1.31905e-12
1.53778e-11
-2.31887e-12
1.4802e-11
-3.07447e-12
1.23265e-11
-3.61686e-12
8.15327e-12
-3.67372e-12
2.69159e-12
-3.26482e-12
-3.18049e-12
-2.61906e-12
-8.05916e-12
-1.70763e-12
-1.14088e-11
-1.02671e-12
-1.21531e-11
-4.06373e-13
-1.03073e-11
-4.76199e-12
1.61695e-13
-4.18849e-12
4.71523e-13
-8.70906e-12
7.45113e-13
-9.72861e-12
9.38351e-13
-8.29328e-12
1.14937e-12
-4.75106e-12
1.02716e-12
6.05962e-13
7.57257e-13
6.32949e-12
-4.70597e-14
1.13822e-11
-7.70385e-13
1.47442e-11
-1.40066e-12
1.60084e-11
-1.91533e-12
1.5317e-11
-2.22733e-12
1.26388e-11
-2.40685e-12
8.33312e-12
-2.34034e-12
2.6254e-12
-2.0659e-12
-3.4546e-12
-1.5957e-12
-8.5291e-12
-1.15519e-12
-1.18491e-11
-5.93508e-13
-1.27145e-11
-2.16206e-13
-1.06843e-11
-4.97804e-12
-3.22804e-14
-4.15591e-12
-1.00105e-13
-8.6409e-12
-1.73571e-13
-9.65484e-12
-2.07242e-13
-8.25927e-12
-3.80286e-13
-4.57773e-12
-4.23782e-13
6.49774e-13
-7.30158e-13
6.63619e-12
-1.0234e-12
1.16758e-11
-1.28433e-12
1.50054e-11
-1.52847e-12
1.62528e-11
-1.70928e-12
1.54981e-11
-1.84541e-12
1.27752e-11
-1.60467e-12
8.09272e-12
-1.27742e-12
2.29845e-12
-8.25534e-13
-3.90618e-12
-5.07293e-13
-8.84707e-12
-3.24921e-13
-1.20312e-11
-1.73442e-13
-1.28657e-11
-5.00125e-14
-1.08074e-11
-5.02791e-12
-2.28602e-13
-3.92704e-12
-6.81716e-13
-8.18753e-12
-1.09465e-12
-9.24163e-12
-1.54527e-12
-7.80839e-12
-1.92877e-12
-4.19394e-12
-1.91904e-12
6.40347e-13
-1.80748e-12
6.52494e-12
-1.7844e-12
1.16532e-11
-1.66502e-12
1.48863e-11
-1.628e-12
1.62161e-11
-1.44258e-12
1.5313e-11
-1.0471e-12
1.23801e-11
-6.88945e-13
7.73486e-12
-2.60219e-13
1.87001e-12
2.73177e-14
-4.19347e-12
3.14418e-13
-9.13389e-12
3.50061e-13
-1.20666e-11
2.26848e-13
-1.27422e-11
5.62021e-14
-1.06365e-11
-4.97157e-12
-3.77446e-13
-3.54934e-12
-1.08103e-12
-7.48367e-12
-1.85188e-12
-8.4705e-12
-2.5232e-12
-7.13679e-12
-2.82679e-12
-3.89005e-12
-3.13104e-12
9.44898e-13
-3.09055e-12
6.4847e-12
-2.73869e-12
1.13017e-11
-2.21312e-12
1.43611e-11
-1.55126e-12
1.55545e-11
-9.30584e-13
1.46926e-11
-3.14372e-13
1.17642e-11
4.03454e-13
7.01731e-12
1.03664e-12
1.23712e-12
1.29111e-12
-4.44768e-12
1.21414e-12
-9.05667e-12
9.89601e-13
-1.18417e-11
5.95566e-13
-1.23479e-11
1.74866e-13
-1.02156e-11
-4.79657e-12
-5.01963e-13
-3.04713e-12
-1.43357e-12
-6.5518e-12
-2.482e-12
-7.42182e-12
-3.33625e-12
-6.28228e-12
-3.89864e-12
-3.32735e-12
-4.03562e-12
1.08217e-12
-3.82842e-12
6.27774e-12
-3.32465e-12
1.07982e-11
-2.53467e-12
1.35713e-11
-1.43413e-12
1.44543e-11
-3.58731e-13
1.36175e-11
6.10757e-13
1.07951e-11
1.47187e-12
6.15649e-12
2.10413e-12
6.05116e-13
2.31277e-12
-4.65606e-12
2.06944e-12
-8.8131e-12
1.53479e-12
-1.13068e-11
8.8255e-13
-1.16954e-11
2.7562e-13
-9.60838e-12
-4.52083e-12
-5.95074e-13
-2.45182e-12
-1.75089e-12
-5.39573e-12
-2.98416e-12
-6.1883e-12
-4.06245e-12
-5.20372e-12
-4.84894e-12
-2.54059e-12
-5.20707e-12
1.44059e-12
-4.80761e-12
5.87853e-12
-3.97148e-12
9.96237e-12
-2.82565e-12
1.2426e-11
-1.56904e-12
1.31981e-11
-1.34727e-13
1.21836e-11
1.22717e-12
9.43344e-12
2.27237e-12
5.11153e-12
2.85729e-12
2.04502e-14
2.94287e-12
-4.74141e-12
2.58492e-12
-8.45491e-12
1.88871e-12
-1.06104e-11
1.06023e-12
-1.08667e-11
3.26869e-13
-8.87477e-12
-4.19384e-12
-6.54927e-13
-1.79667e-12
-1.92108e-12
-4.12933e-12
-3.31409e-12
-4.79504e-12
-4.60279e-12
-3.91478e-12
-5.53317e-12
-1.60996e-12
-5.86589e-12
1.77357e-12
-5.52351e-12
5.53642e-12
-4.48307e-12
8.92216e-12
-3.12886e-12
1.10721e-11
-1.57086e-12
1.16404e-11
5.79993e-14
1.0555e-11
1.59182e-12
7.89985e-12
2.74045e-12
3.96314e-12
3.29745e-12
-5.36322e-13
3.28874e-12
-4.73247e-12
2.81121e-12
-7.97716e-12
2.0213e-12
-9.82027e-12
1.11572e-12
-9.96086e-12
3.37339e-13
-8.09616e-12
-3.85638e-12
-6.71469e-13
-1.12498e-12
-1.98603e-12
-2.81454e-12
-3.46676e-12
-3.31407e-12
-4.84675e-12
-2.53456e-12
-5.82534e-12
-6.31128e-13
-6.19944e-12
2.14792e-12
-5.85393e-12
5.19115e-12
-4.82258e-12
7.89104e-12
-3.33756e-12
9.58727e-12
-1.63123e-12
9.9343e-12
1.04485e-13
8.81949e-12
1.66273e-12
6.34185e-12
2.77588e-12
2.85021e-12
3.30393e-12
-1.06415e-12
3.24585e-12
-4.67417e-12
2.73451e-12
-7.4656e-12
1.9335e-12
-9.01903e-12
1.04925e-12
-9.07638e-12
3.09344e-13
-7.35602e-12
-3.54692e-12
-6.55807e-13
-4.68959e-13
-1.95654e-12
-1.51357e-12
-3.42378e-12
-1.84658e-12
-4.80406e-12
-1.15404e-12
-5.76131e-12
3.26359e-13
-6.16918e-12
2.55603e-12
-5.86271e-12
4.88491e-12
-4.90125e-12
6.92981e-12
-3.44743e-12
8.13369e-12
-1.75578e-12
8.24288e-12
-7.06247e-14
7.13456e-12
1.39848e-12
4.87297e-12
2.42714e-12
1.82178e-12
2.92801e-12
-1.5648e-12
2.85433e-12
-4.60027e-12
2.38063e-12
-6.99168e-12
1.64804e-12
-8.28621e-12
8.76753e-13
-8.30485e-12
2.47491e-13
-6.72652e-12
-3.29931e-12
-6.18613e-13
1.49868e-13
-1.85969e-12
-2.72262e-13
-3.22026e-12
-4.85768e-13
-4.54915e-12
1.75103e-13
-5.42631e-12
1.20376e-12
-5.86334e-12
2.99331e-12
-5.62344e-12
4.64525e-12
-4.79155e-12
6.09816e-12
-3.4702e-12
6.81258e-12
-1.93102e-12
6.70394e-12
-4.33406e-13
5.63719e-12
8.72721e-13
3.56708e-12
1.77596e-12
9.18772e-13
2.27045e-12
-2.05906e-12
2.21408e-12
-4.54368e-12
1.8408e-12
-6.61816e-12
1.22769e-12
-7.67286e-12
6.50735e-13
-7.72766e-12
1.6733e-13
-6.24287e-12
-3.13185e-12
-5.87462e-13
7.37552e-13
-1.74551e-12
8.86025e-13
-2.89121e-12
6.60186e-13
-4.19352e-12
1.47767e-12
-4.88495e-12
1.89543e-12
-5.40262e-12
3.51124e-12
-5.22789e-12
4.47077e-12
-4.5653e-12
5.43582e-12
-3.4175e-12
5.66504e-12
-2.10827e-12
5.39495e-12
-9.21337e-13
4.4505e-12
2.33005e-13
2.41298e-12
9.88267e-13
1.63749e-13
1.55038e-12
-2.62093e-12
1.47654e-12
-4.4696e-12
1.24042e-12
-6.3818e-12
7.45878e-13
-7.17808e-12
4.26633e-13
-7.40817e-12
1.19707e-13
-5.93569e-12
-3.01201e-12
-4.84479e-13
1.22226e-12
-1.55155e-12
1.95335e-12
-2.64485e-12
1.75375e-12
-3.8762e-12
2.70929e-12
-4.29748e-12
2.31698e-12
-4.90033e-12
4.11436e-12
-4.80386e-12
4.37456e-12
-4.28897e-12
4.92119e-12
-3.26664e-12
4.64298e-12
-2.20642e-12
4.33499e-12
-1.38508e-12
3.62942e-12
-4.41996e-13
1.47015e-12
1.9294e-13
-4.70935e-13
9.3124e-13
-3.35898e-12
8.33257e-13
-4.37137e-12
6.70341e-13
-6.21863e-12
3.09061e-13
-6.81653e-12
2.45762e-13
-7.3446e-12
1.53097e-13
-5.84275e-12
-2.85878e-12
-3.23955e-14
1.25489e-12
-1.34976e-12
3.27098e-12
-2.93588e-12
3.34014e-12
-3.77252e-12
3.5462e-12
-3.61676e-12
2.16149e-12
-4.22936e-12
4.72723e-12
-4.46031e-12
4.60579e-12
-4.4799e-12
4.94105e-12
-2.99976e-12
3.16311e-12
-1.86231e-12
3.19781e-12
-1.9039e-12
3.67128e-12
-1.48236e-12
1.04888e-12
-3.66972e-13
-1.58606e-12
1.2814e-12
-5.00709e-12
1.01562e-12
-4.10533e-12
1.72421e-13
-5.37517e-12
-3.71603e-13
-6.27225e-12
3.17449e-13
-8.03339e-12
5.88346e-13
-6.11338e-12
-2.2703e-12
2.4759e-12
-1.22077e-12
-8.83139e-13
6.63027e-12
-5.01345e-12
7.4707e-12
-5.326e-12
3.85901e-12
-2.00873e-12
-1.15552e-12
-1.98222e-12
4.70097e-12
-5.16103e-12
7.78486e-12
-6.10924e-12
5.88951e-12
-2.1714e-12
-7.74475e-13
8.34945e-13
1.9173e-13
-1.81539e-12
6.32186e-12
-3.34408e-12
2.57783e-12
-1.9422e-12
-2.98769e-12
2.87823e-12
-9.82728e-12
2.33189e-12
-3.55874e-12
-1.01189e-12
-2.03113e-12
-2.10956e-12
-5.17432e-12
1.07238e-12
-1.12151e-11
2.38906e-12
-7.42981e-12
1.18873e-13
1.19696e-11
-1.31901e-11
1.77398e-12
1.6826e-11
-1.17474e-11
2.09922e-11
-1.05846e-11
2.69628e-12
5.10642e-12
-1.68464e-11
5.13499e-12
4.67256e-12
-7.70471e-12
2.06247e-11
-1.32437e-11
1.14287e-11
-5.77863e-14
-1.39601e-11
1.09506e-11
-1.08164e-11
7.76038e-13
1.64966e-11
-9.50521e-12
1.28592e-11
-4.14713e-12
-8.34555e-12
1.02141e-11
-2.41884e-11
9.07905e-12
-2.42348e-12
-4.07205e-12
1.11202e-11
-7.82608e-12
-1.42006e-12
3.90012e-12
-2.29411e-11
8.64122e-12
-1.21707e-11
8.76018e-12
4.61763e-11
-5.93498e-11
1.55888e-11
4.74148e-11
-4.08542e-11
7.73477e-11
-3.28773e-11
-5.22836e-12
3.20115e-11
-8.17059e-11
3.70136e-11
-2.74661e-13
-1.92447e-11
7.6792e-11
-4.13148e-11
3.34835e-11
4.15693e-12
-5.94138e-11
4.24016e-11
-4.90495e-11
1.13612e-11
4.75378e-11
-3.29248e-11
5.70695e-11
-1.70314e-11
-2.42277e-11
3.47366e-11
-7.59169e-11
3.24881e-11
-1.18191e-13
-1.56236e-11
5.92321e-11
-2.66758e-11
9.57394e-12
1.17356e-11
-6.1323e-11
2.9638e-11
-3.00667e-11
3.83982e-11
1.19558e-10
-1.02206e-10
4.89457e-11
6.45659e-11
-1.17437e-10
1.33494e-10
-8.68903e-11
-1.92859e-11
9.13493e-11
-1.48402e-10
1.08845e-10
-9.5107e-12
-4.74783e-11
1.27815e-10
-1.00997e-10
4.74538e-11
2.01212e-11
-1.00938e-10
1.15693e-10
-8.0908e-11
3.59761e-11
6.9968e-11
-9.40187e-11
1.02422e-10
-4.99269e-11
-3.66621e-11
9.58392e-11
-1.25856e-10
8.62062e-11
6.16028e-12
-4.22544e-11
1.04187e-10
-7.28173e-11
2.27862e-11
3.50392e-11
-9.50892e-11
8.99466e-11
-4.73592e-11
7.08596e-11
1.8069e-11
-3.23107e-12
1.10265e-11
0
-1.94146e-11
4.55006e-12
-1.31874e-11
-4.96551e-13
1.66897e-11
-7.23439e-12
2.29031e-11
-2.01092e-12
-5.63404e-12
4.32226e-12
-1.28457e-11
0
6.25223e-12
-5.59453e-13
2.17703e-11
-2.45712e-12
1.09095e-11
7.61931e-13
-1.28356e-11
2.61919e-12
-4.89651e-12
-1.22021e-12
1.67928e-11
-4.88542e-14
1.80885e-11
-3.90386e-13
-4.78093e-12
2.70278e-12
-1.00969e-11
0
6.42764e-12
-1.69556e-13
1.66401e-11
-9.31797e-13
1.39651e-12
-7.9507e-13
-3.15352e-14
-1.73866e-12
0
1.07825e-12
0
4.99418e-14
-9.03936e-14
-8.32745e-14
-1.50083e-13
-6.36442e-13
-1.49725e-13
1.579e-12
0
5.8921e-13
0
6.78366e-15
-2.18077e-14
-6.47743e-13
-1.29032e-14
-5.38243e-13
0
1.02091e-12
0
1.51403e-14
-3.38259e-14
-4.79335e-14
-1.31548e-14
-2.0686e-13
-6.46994e-14
8.44479e-13
0
2.09233e-13
0
-9.85564e-16
-9.6165e-15
-7.46413e-13
-8.57231e-15
0
-1.67183e-14
0
-4.6688e-14
0
4.98118e-14
-1.30188e-16
1.64479e-14
-1.479e-16
-1.32185e-14
-2.1814e-15
-4.94659e-14
-1.93002e-17
6.54292e-14
-1.87305e-20
2.61908e-14
-1.36294e-17
3.1895e-16
0
-9.1506e-15
0
-1.30358e-14
0
1.07665e-14
0
6.81384e-15
-2.53585e-16
-1.81954e-14
-6.56469e-16
-3.28918e-14
-3.51449e-19
3.77836e-14
2.57145e-17
3.30383e-14
-8.9695e-18
6.73335e-17
1.15162e-16
-1.9098e-15
-7.7028e-17
0
5.08973e-18
0
1.30709e-16
0
9.87901e-19
-2.23867e-19
9.91733e-19
-5.62642e-18
1.89802e-18
-3.39243e-18
-6.84715e-22
-7.14624e-18
-6.05742e-21
-2.58783e-21
-3.38022e-18
0
-1.17261e-18
0
-4.86766e-17
0
1.29097e-16
0
2.47292e-16
0
1.57804e-18
-4.39608e-18
-4.69339e-20
-4.39957e-18
-2.27213e-17
-7.13236e-18
3.12923e-18
-1.98296e-19
-1.71299e-18
-3.27088e-19
-2.8029e-19
0
-9.40374e-17
0
0
1.9714e-19
0
3.94876e-18
0
0
-1.39732e-21
8.83904e-19
-4.88754e-23
3.55426e-21
-1.10197e-25
-5.61103e-22
-4.57356e-26
-9.40513e-20
-3.20305e-23
-7.38251e-20
-1.70588e-22
-5.29612e-20
0
1.755e-19
0
3.73438e-18
0
1.24758e-18
0
1.14985e-18
-2.31534e-19
1.9008e-21
-5.91009e-21
-6.72182e-22
-9.05812e-23
-2.00209e-19
-6.09864e-22
-5.1231e-20
-2.01762e-20
-6.01571e-20
0
-5.45702e-19
0
0
9.33211e-22
0
1.16143e-20
0
4.89993e-23
-2.89799e-25
1.11497e-25
-7.95823e-26
4.87036e-28
-1.9932e-27
-4.73878e-24
-1.58821e-26
-4.76966e-22
-1.47293e-24
-6.88965e-21
-2.27753e-23
-7.51342e-21
1.73401e-21
1.27289e-20
0
3.88634e-20
0
2.84541e-21
0
1.0101e-21
-1.39151e-22
1.83887e-23
-2.92032e-23
-5.56446e-23
-1.28445e-22
-1.0625e-20
-1.72987e-23
-2.8325e-21
-1.28511e-23
-1.15622e-21
1.71703e-22
-1.80749e-21
0
0
1.43417e-24
1.85393e-27
1.11582e-23
-8.53819e-28
3.12266e-27
-5.63573e-26
1.71292e-27
-3.67603e-25
2.12923e-28
-3.2999e-27
-1.45104e-27
-3.38526e-26
-3.74757e-23
-2.31883e-25
-3.83996e-22
-1.14647e-24
-2.42093e-22
3.65312e-23
3.02594e-22
4.04867e-23
3.41129e-22
2.84072e-24
4.51878e-22
6.93168e-23
3.93004e-22
5.25226e-23
9.41825e-24
-4.97172e-24
-7.25795e-24
-5.38327e-24
-7.9709e-23
-4.20372e-24
-1.76573e-22
3.2018e-24
-4.6354e-24
1.96179e-23
-3.72994e-24
2.41854e-25
3.42655e-25
7.6191e-28
-2.33488e-29
1.67896e-26
-1.85744e-27
4.36203e-26
-4.44961e-27
9.24566e-26
-1.25047e-27
1.92734e-28
-1.75138e-28
-6.12696e-27
-6.25723e-29
-1.35045e-24
-3.86843e-27
-6.2728e-24
-1.91588e-26
-2.52098e-24
4.86141e-25
3.07051e-24
1.94966e-24
4.24421e-24
4.23693e-24
2.85276e-23
7.75837e-24
2.19262e-23
4.66514e-24
1.77274e-24
1.07615e-24
-2.9449e-24
-2.78487e-25
-8.04507e-24
2.86143e-25
-6.59698e-24
1.15084e-24
-1.11221e-25
3.88491e-25
-1.20154e-25
5.27987e-26
2.49483e-26
8.1993e-29
-2.83759e-29
1.00764e-27
-6.68179e-29
7.69622e-28
-2.19738e-29
7.58308e-29
-3.37304e-30
7.94489e-31
-4.49809e-31
-1.73706e-29
-4.09047e-31
-2.71014e-27
-3.67883e-30
-6.17987e-26
-2.13064e-28
-9.28045e-26
1.7322e-26
3.10506e-25
2.92731e-25
1.52889e-24
1.88801e-24
2.74703e-24
1.62042e-24
2.03216e-24
9.61278e-25
1.85751e-25
3.32761e-25
-2.89438e-25
4.76475e-26
-7.18288e-25
7.11971e-26
-2.49456e-25
1.54077e-25
-2.99433e-26
2.14045e-26
-4.23376e-27
1.4477e-26
9.74428e-27
2.71999e-30
3.35841e-30
2.27632e-31
1.29022e-32
6.53606e-34
-7.73831e-33
-9.7945e-31
-1.9576e-28
-1.3927e-27
2.6364e-26
1.53134e-25
1.95044e-25
7.8459e-26
2.61364e-27
-1.08188e-26
-2.01287e-26
-5.83442e-27
-1.48005e-27
-6.66335e-28
)
;

boundaryField
{
    top
    {
        type            calculated;
        value           nonuniform List<scalar> 
20
(
0
0
0
0
0
0
0
0
6.17147e-27
1.3404e-25
5.97116e-25
7.92434e-25
4.42884e-25
1.15253e-25
2.61045e-26
2.979e-26
4.05854e-26
8.86955e-27
3.78204e-27
1.74576e-27
)
;
    }
    left
    {
        type            calculated;
        value           uniform 0;
    }
    right
    {
        type            calculated;
        value           uniform 0;
    }
    bottom
    {
        type            calculated;
        value           uniform 0;
    }
    front
    {
        type            empty;
        value           nonuniform List<scalar> 0();
    }
    back
    {
        type            empty;
        value           nonuniform List<scalar> 0();
    }
    frontAndBack
    {
        type            empty;
        value           nonuniform List<scalar> 0();
    }
}


// ************************************************************************* //
