/*--------------------------------*- C++ -*----------------------------------*\
  =========                 |
  \\      /  F ield         | OpenFOAM: The Open Source CFD Toolbox
   \\    /   O peration     | Website:  https://openfoam.org
    \\  /    A nd           | Version:  10
     \\/     M anipulation  |
\*---------------------------------------------------------------------------*/
FoamFile
{
    format      ascii;
    class       volScalarField;
    location    "0.1";
    object      alpha.water;
}
// * * * * * * * * * * * * * * * * * * * * * * * * * * * * * * * * * * * * * //

dimensions      [0 0 0 0 0 0 0];

internalField   nonuniform List<scalar> 
800
(
0.999985
0.999983
0.999983
0.999982
0.99998
0.999981
0.999983
0.999983
0.999982
0.999983
0.999983
0.999983
0.999982
0.999981
0.999983
0.999983
0.999983
0.999978
0.999981
0.99999
0.999984
0.999982
0.999979
0.999979
0.999979
0.999979
0.999983
0.99998
0.999979
0.999982
0.999983
0.99998
0.999979
0.999979
0.999982
0.999983
0.999978
0.999978
0.999979
0.999991
0.999982
0.999979
0.999979
0.999979
0.999979
0.999979
0.999979
0.999979
0.999979
0.999979
0.999979
0.999979
0.999979
0.999979
0.999982
0.999978
0.999978
0.999978
0.999978
0.999991
0.999979
0.999979
0.999979
0.999979
0.999979
0.999979
0.99998
0.999979
0.999979
0.999979
0.999979
0.999979
0.999979
0.999983
0.999978
0.999978
0.999978
0.999978
0.999984
0.999991
0.999983
0.999985
0.999983
0.999979
0.999979
0.999979
0.99998
0.999979
0.999979
0.999979
0.999979
0.999979
0.999979
0.999984
0.999979
0.999978
0.999978
0.999978
0.999986
0.999992
0.999985
0.999985
0.999985
0.999979
0.999979
0.999979
0.99998
0.999985
0.999979
0.999979
0.999979
0.999979
0.999982
0.999984
0.999979
0.999978
0.999978
0.999978
0.999984
0.999992
0.999985
0.999982
0.999979
0.999979
0.999979
0.999979
0.999983
0.999988
0.99998
0.999979
0.999979
0.999981
0.999987
0.999984
0.999978
0.999978
0.999978
0.999978
0.999985
0.999992
0.999984
0.999979
0.999979
0.999979
0.999979
0.999979
0.999988
0.999988
0.999979
0.999979
0.999979
0.999981
0.999987
0.999985
0.999978
0.999978
0.999978
0.999979
0.99999
0.999992
0.999979
0.999979
0.999979
0.999979
0.999986
0.999991
0.999989
0.99998
0.999979
0.999979
0.999979
0.999979
0.999987
0.99999
0.999985
0.999983
0.999988
0.99999
0.999985
0.999992
0.999982
0.999987
0.999988
0.999991
0.999991
0.999991
0.999983
0.999979
0.999979
0.999979
0.999979
0.999979
0.999981
0.99999
0.99999
0.99999
0.99999
0.99999
0.999985
0.999992
0.999991
0.999991
0.999991
0.999991
0.999991
0.999987
0.999979
0.999979
0.999981
0.999984
0.999984
0.999983
0.999981
0.999982
0.99999
0.99999
0.99999
0.999985
0.999985
0.999994
0.999991
0.999991
0.999991
0.999984
0.999984
0.999983
0.999979
0.999979
0.999986
0.999986
0.999986
0.999986
0.999981
0.999981
0.999984
0.99999
0.99999
0.999985
0.999985
0.999994
0.999989
0.999991
0.999991
0.999991
0.999984
0.999985
0.999979
0.999979
0.999986
0.999986
0.999986
0.999986
0.999981
0.999982
0.999982
0.999982
0.999988
0.999987
0.999989
0.999994
0.999989
0.999989
0.999994
0.999994
0.999984
0.999987
0.99999
0.999979
0.999986
0.999986
0.999986
0.999981
0.999981
0.999991
0.999987
0.99999
0.999992
0.999996
0.999995
0.999994
0.99999
0.99999
0.999994
0.999992
0.99999
0.999988
0.999993
0.999979
0.999984
0.999986
0.999986
0.999981
0.999986
0.999992
0.999987
0.999994
0.999996
0.999996
0.999995
0.999997
0.999995
0.999996
0.999997
0.999995
0.999993
0.999988
0.999993
0.999986
0.999981
0.999984
0.999982
0.999981
0.999992
0.999992
0.999988
0.999993
0.999997
0.999997
0.999996
0.999997
0.999995
0.999997
0.999998
0.999998
0.999993
0.999988
0.999994
0.999991
0.999981
0.999981
0.999981
0.999981
0.999991
0.999991
0.999994
0.999996
0.999997
0.999998
0.999998
0.999998
0.999996
0.999997
0.999998
0.999998
0.999994
0.999988
0.999994
0.999994
0.999981
0.999981
0.999981
0.999989
0.999994
0.999992
0.999995
0.999998
0.999998
0.999999
0.999999
0.999999
0.999998
0.999999
0.999999
0.999998
0.999996
0.999993
0.999993
0.999997
0.999992
0.999987
0.999991
0.999997
0.999997
0.999995
0.999997
0.999999
0.999999
0.999999
0.999999
0.999999
0.999999
0.999999
0.999999
0.999999
0.999998
0.999997
0.999997
0.999998
0.999998
0.999998
0.999998
0.999998
0.999998
0.999998
0.999999
1
1
1
1
1
1
1
1
1
0.999999
0.999999
0.999999
0.999999
0.999999
0.999999
0.999999
0.999999
0.999999
0.999999
1
1
1
1
1
1
1
1
1
1
1
1
1
1
1
1
1
1
1
1
1
1
1
1
1
1
1
1
1
1
1
1
1
1
1
1
1
1
1
1
1
1
1
1
1
1
1
1
1
1
1
1
1
1
1
1
1
1
1
1
1
1
1
1
1
1
1
1
1
1
1
1
1
1
1
1
1
1
1
1
1
1
1
1
1
1
1
1
1
1
1
1
1
1
1
1
1
1
1
1
1
1
1
1
1
1
1
1
1
1
1
1
1
1
1
1
1
0.999999
0.999999
0.999999
0.999999
0.999999
0.999999
0.999999
0.999999
1
1
0.999999
1
0.999996
1
0.999996
1
0.999999
1
1
0.999999
0.999999
0.999998
0.999999
0.999991
0.999999
0.999993
0.999999
0.999999
1
0.999997
0.999999
0.999999
0.999991
0.999995
0.999991
1
0.999999
0.999997
0.999998
0.999999
0.999999
0.999996
0.999993
0.999982
0.999999
0.999999
0.999994
0.999998
1
0.872543
0.870959
0.876637
0.868271
0.876479
0.86847
0.876815
0.866382
0.868938
0.868163
0.871646
0.871603
0.863923
0.869991
0.868474
0.877403
0.866269
0.867178
0.864822
0.870098
0.134651
0.131491
0.127512
0.123182
0.129097
0.123181
0.126899
0.122425
0.126649
0.130601
0.134257
0.127135
0.124352
0.128807
0.132832
0.138372
0.131195
0.130142
0.134078
0.138402
3.03365e-05
0.000298581
0.000377798
0.000314668
5.30828e-05
0.000327229
0.000431537
0.000311321
2.287e-05
1.62029e-05
0.000159771
0.000212932
3.10022e-05
2.64671e-05
0.000407789
0.000316482
0.000188839
1.55763e-05
3.91019e-05
0.000116431
2.34319e-05
0.000156107
9.37712e-05
0.000308288
2.9322e-05
0.000313035
7.1455e-05
0.000163473
1.49854e-05
1.35673e-05
6.58457e-05
4.50439e-05
0.000226383
2.29112e-05
0.000286913
1.80304e-05
0.000214542
1.13692e-05
6.53016e-05
1.08068e-05
4.36732e-07
6.75712e-08
6.1236e-10
2.06544e-08
2.44592e-07
3.67622e-11
3.41935e-11
3.67622e-11
1.87576e-07
3.92193e-07
3.61266e-06
4.76766e-07
5.05292e-08
1.13274e-07
4.76724e-09
3.43085e-11
9.75207e-09
6.35136e-08
4.06818e-08
8.85393e-08
3.47384e-09
7.6009e-08
5.77072e-10
4.1103e-08
1.57336e-13
5.71319e-08
3.56551e-11
3.79257e-09
2.10737e-09
1.82554e-08
8.01296e-08
1.00172e-08
5.01192e-08
2.64688e-10
7.91749e-08
5.21116e-12
9.72634e-09
1.31006e-09
4.9134e-09
9.17863e-10
1.04984e-11
4.15661e-11
1.57272e-12
7.19825e-17
5.54375e-17
7.85713e-16
1.387e-13
1.29068e-10
6.43779e-10
1.12297e-09
8.31483e-10
1.3179e-10
6.94634e-11
2.31289e-12
2.45052e-12
4.83453e-12
5.15045e-10
6.95403e-11
1.85825e-11
4.8389e-12
9.1454e-15
7.32883e-14
2.26395e-15
1.48122e-16
5.54375e-17
6.11323e-17
1.64989e-14
1.0026e-11
3.57849e-11
4.38368e-11
1.50379e-11
2.53989e-11
3.57288e-11
2.31212e-12
4.02973e-12
9.8852e-13
6.71541e-12
8.74193e-12
8.16357e-14
3.65554e-14
3.29613e-17
9.38302e-16
4.04427e-15
1.40774e-14
1.12089e-16
1.11532e-15
6.55228e-15
3.41778e-13
7.16941e-13
6.61008e-13
4.00178e-13
2.24013e-12
3.05601e-12
1.14188e-12
6.0954e-13
6.46173e-13
7.76616e-13
3.19365e-13
1.02763e-14
2.47497e-14
3.25829e-17
1.92264e-16
1.61319e-16
5.7121e-17
3.59002e-18
1.27284e-18
1.27047e-16
3.837e-15
3.40721e-14
1.01875e-13
2.31136e-13
4.34261e-13
4.94271e-13
2.63499e-13
9.55816e-14
9.70239e-14
1.14632e-13
1.93359e-14
3.50706e-15
1.62825e-15
3.72711e-18
2.78728e-18
5.08096e-19
5.64219e-20
6.88546e-21
6.86536e-21
8.83796e-20
2.26044e-17
1.06961e-15
1.12438e-14
4.27627e-14
6.26346e-14
4.66864e-14
1.75878e-14
5.3476e-15
5.18821e-15
4.94942e-15
8.60838e-16
4.12734e-16
4.1035e-16
)
;

boundaryField
{
    top
    {
        type            inletOutlet;
        inletValue      uniform 0;
        value           nonuniform List<scalar> 
20
(
0
0
0
0
0
0
0
0
1.06961e-15
1.12438e-14
4.27627e-14
6.26346e-14
4.66864e-14
1.75878e-14
5.3476e-15
5.18821e-15
4.94942e-15
8.60838e-16
4.12734e-16
4.1035e-16
)
;
    }
    left
    {
        type            zeroGradient;
    }
    right
    {
        type            zeroGradient;
    }
    bottom
    {
        type            zeroGradient;
    }
    front
    {
        type            empty;
    }
    back
    {
        type            empty;
    }
    frontAndBack
    {
        type            empty;
    }
}


// ************************************************************************* //
