/*--------------------------------*- C++ -*----------------------------------*\
  =========                 |
  \\      /  F ield         | OpenFOAM: The Open Source CFD Toolbox
   \\    /   O peration     | Website:  https://openfoam.org
    \\  /    A nd           | Version:  10
     \\/     M anipulation  |
\*---------------------------------------------------------------------------*/
FoamFile
{
    format      ascii;
    class       volScalarField;
    location    "0.1";
    object      p;
}
// * * * * * * * * * * * * * * * * * * * * * * * * * * * * * * * * * * * * * //

dimensions      [1 -1 -2 0 0 0 0];

internalField   nonuniform List<scalar> 
800
(
15.0409
15.0394
15.0391
15.0369
15.0315
15.0275
15.0247
15.0199
15.015
15.0122
15.0105
15.0095
15.0085
15.0094
15.0122
15.0139
15.0139
15.0151
15.0113
15.0162
14.5487
14.5477
14.5478
14.5456
14.5425
14.5381
14.537
14.5304
14.5276
14.5242
14.5234
14.5205
14.5211
14.5219
14.5224
14.5238
14.5219
14.5224
14.5204
14.5246
14.0587
14.0611
14.0595
14.0573
14.0541
14.0502
14.0462
14.0428
14.0394
14.036
14.0338
14.0324
14.0323
14.0328
14.034
14.0312
14.0318
14.0317
14.0307
14.0342
13.5754
13.5745
13.5722
13.5704
13.5671
13.5634
13.559
13.5559
13.5522
13.549
13.5465
13.5447
13.5435
13.5465
13.5434
13.5431
13.543
13.5423
13.541
13.5446
13.0878
13.0912
13.0901
13.0846
13.0817
13.0774
13.0748
13.0697
13.0656
13.0627
13.0599
13.0578
13.0566
13.0632
13.0555
13.0558
13.0556
13.0546
13.0539
13.0565
12.6071
12.6091
12.6096
12.602
12.5986
12.5944
12.5899
12.5894
12.5801
12.5772
12.5744
12.5717
12.5715
12.5751
12.57
12.5703
12.57
12.5692
12.5667
12.5694
12.1265
12.124
12.1245
12.1219
12.118
12.1136
12.1083
12.1153
12.0968
12.0941
12.0905
12.0881
12.0939
12.0879
12.0879
12.087
12.0862
12.0854
12.0812
12.0832
11.6466
11.6491
11.6475
11.6444
11.6397
11.6345
11.6333
11.631
11.6168
11.6129
11.6089
11.605
11.6103
11.6036
11.6058
11.605
11.6035
11.6027
11.5989
11.5987
11.1752
11.1743
11.1727
11.1693
11.1627
11.1634
11.1556
11.1453
11.1393
11.1341
11.1301
11.1276
11.1258
11.129
11.1197
11.122
11.12
11.1202
11.1184
11.1159
10.6996
10.6998
10.6985
10.697
10.6945
10.6882
10.6763
10.6702
10.663
10.657
10.6525
10.6499
10.6458
10.6466
10.6444
10.6416
10.6412
10.6393
10.641
10.6341
10.2284
10.2292
10.2281
10.2265
10.2217
10.2119
10.2055
10.1974
10.1876
10.1827
10.1765
10.1706
10.1692
10.1663
10.1658
10.1634
10.1612
10.1637
10.1606
10.1577
9.76123
9.76042
9.75672
9.75802
9.74979
9.73978
9.73713
9.72593
9.71837
9.71031
9.70363
9.6989
9.69305
9.69214
9.68495
9.68402
9.6823
9.68368
9.68093
9.6774
9.29541
9.2931
9.28971
9.28519
9.28244
9.2702
9.26759
9.25755
9.24618
9.23764
9.22995
9.22331
9.21863
9.21475
9.21339
9.21229
9.20163
9.19884
9.19674
9.19452
8.83311
8.83133
8.82963
8.82238
8.81755
8.80536
8.79734
8.79119
8.77529
8.76662
8.75751
8.75326
8.74312
8.73993
8.7309
8.72551
8.72083
8.71923
8.71543
8.71352
8.37104
8.36832
8.36481
8.35811
8.34956
8.34113
8.33466
8.32279
8.30826
8.29807
8.28738
8.28175
8.26833
8.26379
8.25358
8.24709
8.24245
8.23714
8.23399
8.23197
7.91103
7.90791
7.90414
7.8957
7.88732
7.87843
7.8677
7.85504
7.84508
7.82876
7.81807
7.80828
7.7958
7.78606
7.77489
7.76591
7.75961
7.7536
7.74983
7.74822
7.45315
7.44843
7.44318
7.43477
7.42321
7.41966
7.40465
7.38917
7.378
7.36423
7.34909
7.33486
7.31819
7.30556
7.2916
7.28143
7.27329
7.26704
7.26254
7.26133
6.99541
6.98945
6.98255
6.97229
6.96116
6.95599
6.93872
6.92218
6.90994
6.89365
6.8751
6.85499
6.83724
6.82279
6.807
6.79426
6.78428
6.77704
6.77244
6.77108
6.53832
6.5314
6.52264
6.5105
6.49793
6.48548
6.4704
6.45199
6.43178
6.41503
6.39325
6.37276
6.35278
6.33429
6.31701
6.30257
6.29143
6.28322
6.27827
6.27696
6.08337
6.07502
6.06348
6.04906
6.03327
6.01603
5.99729
5.97741
5.95533
5.93194
5.90803
5.88494
5.86214
5.84099
5.82198
5.80641
5.79419
5.78526
5.77987
5.77839
5.63127
5.62049
5.60552
5.58821
5.56884
5.54698
5.52358
5.49989
5.4748
5.44753
5.4186
5.39044
5.36456
5.34186
5.322
5.30551
5.29258
5.28319
5.27724
5.27523
5.18432
5.16872
5.14857
5.12805
5.10515
5.07696
5.04692
5.01851
4.99048
4.9585
4.92243
4.88805
4.85979
4.83704
4.81689
4.79985
4.78673
4.7774
4.77067
4.76724
4.74694
4.72008
4.69078
4.66897
4.64473
4.60643
4.56524
4.5326
4.50494
4.46805
4.41967
4.37516
4.34651
4.32733
4.30794
4.28986
4.27706
4.26899
4.2605
4.25368
4.33141
4.2733
4.22518
4.21178
4.19606
4.13737
4.07308
4.03888
4.02442
3.98459
3.90982
3.84445
3.8226
3.81569
3.79622
3.77361
3.76237
3.75976
3.74787
3.73224
3.96715
3.81544
3.72636
3.75507
3.78549
3.67192
3.55099
3.5252
3.56602
3.53259
3.39085
3.26821
3.26539
3.3107
3.28798
3.24784
3.24083
3.25826
3.23843
3.19697
3.74753
3.30772
3.13753
3.29753
3.51027
3.21416
2.94343
2.95272
3.17776
3.18572
2.86917
2.60011
2.68337
2.85519
2.8039
2.69474
2.69915
2.786
2.73893
2.64052
3.49828
2.63077
2.2569
2.75197
3.31811
2.7088
2.07715
2.18457
2.86459
3.05478
2.31162
1.76452
2.00556
2.46317
2.39923
2.07651
2.15636
2.30115
2.24734
2.06115
3.084
2.06266
1.53378
2.1235
3.06746
2.20598
1.268
1.26527
2.08291
2.64656
2.1362
1.30852
1.13939
2.0518
2.35943
2.21876
1.71532
1.59188
1.73571
2.01215
2.36927
1.92426
1.17872
0.54668
1.76098
1.50949
1.26465
0.102106
0.24586
2.11988
3.09524
1.19828
-1.16576
0.49951
2.75845
3.80551
1.18526
-0.573669
0.54056
2.77539
2.07014
2.62972
0.938691
-1.56032
0.985564
1.4038
2.3603
-1.66216
-3.06851
2.38332
6.65686
1.2467
-6.06023
-2.80922
4.45255
8.25963
0.0909331
-5.49064
-1.38491
5.29276
0.261729
0.456701
0.0910679
-0.294326
-0.107579
0.097705
0.365879
-0.162711
-0.563173
0.349247
1.0028
0.0429018
-0.969564
-0.578822
0.746274
1.24204
-0.0926323
-0.923577
-0.160888
0.848816
0.0133122
0.0414727
0.071393
0.0554666
0.0207819
0.0390745
0.052226
0.049623
0.0114836
-0.0188252
-0.0248521
0.00669796
0.0148671
-0.00391168
0.0120731
0.0109752
0.0393202
0.0260139
-0.00201534
0.00748242
0.0416626
0.00915267
0.0128048
0.0576045
0.0277222
0.0449023
0.00237286
0.0205798
0.0196573
0.0114726
-0.0203991
0.00968439
-0.00773321
-0.00818494
0.0288739
-0.0177123
0.0445182
0.0326099
-0.0123356
0.0284048
0.017997
0.00648146
0.00941563
0.00574687
0.009991
0.00196158
0.00655663
0.00401322
0.00466753
0.00580149
-0.00247952
0.00293263
-4.4999e-05
-0.00746462
-0.00828232
-0.00452937
-0.00302478
0.00949051
0.0119019
0.0189291
0.00995764
0.00760303
0.00763547
0.00640158
0.00670879
0.00410586
0.00476447
0.0040832
0.00427034
0.00323176
0.00066496
0.00117502
-0.00011074
-0.00249699
-0.00419831
-0.00243932
0.0004023
0.00578097
0.00796794
0.0098666
0.00613173
0.00588898
0.00592938
0.00519935
0.00479069
0.00376464
0.00383228
0.00338367
0.00319402
0.002588
0.00155876
0.00132107
6.85201e-05
-0.00124279
-0.00180648
-0.000715444
0.000935581
0.00349196
0.00493427
0.00604194
0.00437646
0.00419024
0.00417309
0.00402228
0.00385526
0.00319981
0.00290096
0.00274628
0.00278475
0.002376
0.00155101
0.00107406
0.000477241
-0.000100506
-0.000470671
-4.87029e-05
0.00101365
0.00252126
0.00324995
0.00356798
0.00292352
0.00287757
0.00285733
0.00282923
0.00274313
0.00240093
0.00216342
0.00207794
0.00206058
0.00178393
0.00129956
0.000930118
0.000600338
0.00032889
0.000134328
0.000326156
0.000901983
0.00166237
0.00201378
0.0020716
0.00170885
0.00169448
0.00169663
0.00168371
0.00163408
0.00147647
0.00135636
0.00130532
0.00124056
0.00106025
0.000822327
0.000640588
0.000502602
0.000396695
0.000319558
0.000394422
0.000627098
0.000921738
0.00104306
0.00102341
0.000569709
0.000564942
0.000563353
0.000556365
0.000539771
0.00049499
0.00046384
0.000455256
0.000391054
0.000289072
0.000225912
0.000214804
0.00023146
0.000247382
0.000245056
0.000241225
0.000247868
0.000259931
0.000242102
0.00020912
)
;

boundaryField
{
    top
    {
        type            calculated;
        value           nonuniform List<scalar> 
20
(
-1.28456e-06
-3.8269e-06
-6.90169e-06
-9.81143e-06
-1.03581e-05
-7.91818e-06
-3.33115e-06
-2.58216e-07
0
0
0
0
0
0
0
0
0
0
0
0
)
;
    }
    left
    {
        type            calculated;
        value           nonuniform List<scalar> 
40
(
15.0409
14.5487
14.0587
13.5754
13.0878
12.6071
12.1265
11.6466
11.1752
10.6996
10.2284
9.76123
9.29541
8.83311
8.37104
7.91103
7.45315
6.99541
6.53832
6.08337
5.63127
5.18432
4.74694
4.33141
3.96715
3.74753
3.49828
3.084
2.36927
2.07014
0.261729
0.0133122
0.0416626
0.017997
0.00995764
0.00613173
0.00437646
0.00292352
0.00170885
0.000569709
)
;
    }
    right
    {
        type            calculated;
        value           nonuniform List<scalar> 
40
(
15.0162
14.5246
14.0342
13.5446
13.0565
12.5694
12.0832
11.5987
11.1159
10.6341
10.1577
9.6774
9.19452
8.71352
8.23197
7.74822
7.26133
6.77108
6.27696
5.77839
5.27523
4.76724
4.25368
3.73224
3.19697
2.64052
2.06115
2.01215
2.77539
5.29276
0.848816
0.00748242
0.0284048
0.0189291
0.0098666
0.00604194
0.00356798
0.0020716
0.00102341
0.00020912
)
;
    }
    bottom
    {
        type            calculated;
        value           nonuniform List<scalar> 
20
(
15.286
15.2844
15.2841
15.2818
15.2764
15.2723
15.2693
15.2644
15.2595
15.2567
15.255
15.254
15.253
15.254
15.2569
15.2588
15.2589
15.2601
15.2564
15.2613
)
;
    }
    front
    {
        type            empty;
    }
    back
    {
        type            empty;
    }
    frontAndBack
    {
        type            empty;
    }
}


// ************************************************************************* //
