/*--------------------------------*- C++ -*----------------------------------*\
  =========                 |
  \\      /  F ield         | OpenFOAM: The Open Source CFD Toolbox
   \\    /   O peration     | Website:  https://openfoam.org
    \\  /    A nd           | Version:  10
     \\/     M anipulation  |
\*---------------------------------------------------------------------------*/
FoamFile
{
    format      ascii;
    class       volScalarField;
    location    "0.1";
    object      p_rgh;
}
// * * * * * * * * * * * * * * * * * * * * * * * * * * * * * * * * * * * * * //

dimensions      [1 -1 -2 0 0 0 0];

internalField   nonuniform List<scalar> 
800
(
15.2861
15.2846
15.2843
15.2821
15.2768
15.2728
15.2699
15.2651
15.2603
15.2575
15.2558
15.2547
15.2537
15.2546
15.2574
15.2592
15.2592
15.2603
15.2565
15.2615
15.2844
15.2835
15.2836
15.2814
15.2782
15.2739
15.2727
15.2661
15.2634
15.2599
15.2592
15.2562
15.2568
15.2577
15.2581
15.2596
15.2576
15.2581
15.2561
15.2604
15.285
15.2873
15.2857
15.2835
15.2804
15.2764
15.2724
15.269
15.2657
15.2623
15.2601
15.2586
15.2585
15.2591
15.2602
15.2574
15.258
15.2579
15.2569
15.2605
15.2921
15.2912
15.2889
15.2871
15.2839
15.2801
15.2757
15.2727
15.2689
15.2657
15.2632
15.2614
15.2602
15.2632
15.2601
15.2598
15.2597
15.259
15.2577
15.2613
15.295
15.2984
15.2973
15.2918
15.2889
15.2847
15.282
15.2769
15.2728
15.2699
15.2671
15.265
15.2638
15.2704
15.2627
15.263
15.2628
15.2618
15.2611
15.2637
15.3048
15.3068
15.3073
15.2997
15.2963
15.2921
15.2876
15.2871
15.2778
15.2749
15.2721
15.2694
15.2692
15.2728
15.2677
15.268
15.2677
15.2669
15.2644
15.2671
15.3147
15.3122
15.3126
15.3101
15.3062
15.3018
15.2965
15.3035
15.285
15.2823
15.2787
15.2763
15.2821
15.2761
15.2761
15.2751
15.2744
15.2735
15.2694
15.2714
15.3252
15.3278
15.3262
15.323
15.3184
15.3131
15.312
15.3097
15.2954
15.2915
15.2876
15.2837
15.289
15.2822
15.2845
15.2837
15.2822
15.2814
15.2776
15.2774
15.3444
15.3435
15.3419
15.3385
15.3318
15.3326
15.3248
15.3145
15.3085
15.3033
15.2992
15.2968
15.295
15.2983
15.2889
15.2912
15.2892
15.2894
15.2876
15.2851
15.3593
15.3595
15.3582
15.3567
15.3542
15.3479
15.3359
15.3298
15.3226
15.3166
15.3122
15.3095
15.3054
15.3063
15.3041
15.3014
15.3009
15.299
15.3007
15.2938
15.3786
15.3794
15.3783
15.3767
15.3719
15.3621
15.3556
15.3476
15.3378
15.3329
15.3266
15.3208
15.3193
15.3164
15.316
15.3136
15.3114
15.3139
15.3108
15.3079
15.4019
15.4011
15.3974
15.3987
15.3904
15.3804
15.3778
15.3666
15.359
15.351
15.3443
15.3396
15.3337
15.3328
15.3256
15.3247
15.323
15.3243
15.3216
15.3181
15.4266
15.4243
15.4209
15.4164
15.4136
15.4014
15.3987
15.3887
15.3773
15.3688
15.3611
15.3545
15.3498
15.3459
15.3445
15.3434
15.3328
15.33
15.3279
15.3257
15.4548
15.453
15.4513
15.4441
15.4392
15.427
15.419
15.4128
15.3969
15.3883
15.3792
15.3749
15.3647
15.3616
15.3526
15.3472
15.3425
15.3409
15.3371
15.3352
15.4832
15.4805
15.477
15.4703
15.4617
15.4533
15.4469
15.4349
15.4204
15.4102
15.3995
15.3939
15.3805
15.376
15.3657
15.3593
15.3547
15.3494
15.3462
15.3442
15.5137
15.5106
15.5069
15.4984
15.49
15.4811
15.4704
15.4577
15.4477
15.4314
15.4207
15.4109
15.3985
15.3888
15.3775
15.3686
15.3623
15.3563
15.3525
15.351
15.5464
15.5417
15.5364
15.528
15.5164
15.5128
15.4978
15.4823
15.4711
15.4573
15.4422
15.428
15.4114
15.3987
15.3848
15.3746
15.3665
15.3603
15.3558
15.3546
15.5791
15.5732
15.5663
15.556
15.5449
15.5396
15.5224
15.5059
15.4935
15.4772
15.4587
15.4386
15.4209
15.4065
15.3907
15.378
15.368
15.3608
15.3562
15.3548
15.6125
15.6056
15.5969
15.5847
15.5721
15.5597
15.5446
15.5262
15.506
15.4892
15.4674
15.447
15.427
15.4085
15.3912
15.3768
15.3657
15.3575
15.3525
15.3512
15.6481
15.6398
15.6282
15.6138
15.598
15.5807
15.562
15.5421
15.5201
15.4967
15.4728
15.4497
15.4269
15.4057
15.3867
15.3712
15.3589
15.35
15.3446
15.3431
15.6865
15.6757
15.6608
15.6435
15.6241
15.6022
15.5788
15.5551
15.53
15.5028
15.4738
15.4457
15.4198
15.3971
15.3772
15.3608
15.3478
15.3384
15.3325
15.3305
15.7301
15.7145
15.6943
15.6738
15.6509
15.6227
15.5927
15.5643
15.5362
15.5042
15.4682
15.4338
15.4055
15.3828
15.3626
15.3456
15.3325
15.3232
15.3164
15.313
15.7832
15.7563
15.727
15.7052
15.681
15.6427
15.6015
15.5689
15.5412
15.5043
15.4559
15.4114
15.3828
15.3636
15.3442
15.3261
15.3133
15.3053
15.2968
15.2899
15.8582
15.8001
15.7519
15.7385
15.7228
15.6641
15.5998
15.5656
15.5512
15.5114
15.4366
15.3712
15.3494
15.3425
15.323
15.3004
15.2891
15.2865
15.2746
15.259
15.9844
15.8327
15.7436
15.7723
15.8028
15.6892
15.5682
15.5425
15.5833
15.5498
15.4081
15.2855
15.2827
15.328
15.3052
15.2651
15.2581
15.2755
15.2557
15.2142
16.2553
15.8155
15.6453
15.8053
16.018
15.7219
15.4512
15.4605
15.6855
15.6935
15.3769
15.1079
15.1911
15.3629
15.3116
15.2025
15.2069
15.2937
15.2467
15.1483
16.4965
15.629
15.2551
15.7502
16.3164
15.707
15.0754
15.1828
15.8628
16.053
15.3099
14.7628
15.0038
15.4614
15.3975
15.0748
15.1546
15.2994
15.2456
15.0594
16.5727
15.5514
15.0225
15.6122
16.5562
15.6947
14.7567
14.754
15.5717
16.1353
15.6249
14.7973
14.6281
15.5405
15.8481
15.7075
15.204
15.0806
15.2244
15.5009
16.3485
15.9035
15.158
14.5258
15.7402
15.4886
15.2439
14.0813
14.2251
16.0991
17.0745
15.1775
12.8134
14.4787
16.7374
17.7847
15.1645
13.4055
14.5198
16.7546
14.6975
15.2341
13.6252
11.0052
13.6698
13.9723
15.0494
10.8761
9.50671
14.9473
19.2712
13.8604
6.44249
9.78122
17.0211
20.9572
12.6276
7.05913
11.1308
17.8847
2.28909
2.43683
2.01173
1.56162
1.83677
1.95363
2.27738
1.68192
1.34459
2.31607
3.02427
1.95793
0.90387
1.36119
2.74644
3.32501
1.88308
1.0364
1.85791
2.93224
0.0292312
0.0615321
0.0926752
0.0757744
0.037052
0.0595761
0.0743376
0.0698791
0.0272874
-0.00312437
-0.00693521
0.0254354
0.0307964
0.0119476
0.0338182
0.0313109
0.0576858
0.0417051
0.014039
0.0247303
0.0579771
0.02758
0.0302394
0.0784553
0.0441304
0.0658287
0.019452
0.0391245
0.0358372
0.0276299
-0.00340927
0.026343
0.0118133
0.00812118
0.0493843
-0.00148394
0.0638761
0.0487322
0.00464563
0.0445182
0.0344359
0.0229143
0.0258474
0.022179
0.0264268
0.0183933
0.0229884
0.020445
0.0211024
0.0222397
0.0140115
0.0193722
0.0163876
0.00896899
0.00814951
0.0119024
0.0134071
0.0259233
0.0283343
0.0353623
0.02688
0.0245266
0.0245577
0.0233245
0.023631
0.0210291
0.0216867
0.0210055
0.0211926
0.0201543
0.0175886
0.0180974
0.0168124
0.0144253
0.0127253
0.0144829
0.0173247
0.0227032
0.0248903
0.0267889
0.0235445
0.0233017
0.0233421
0.0226121
0.0222034
0.0211774
0.021245
0.0207964
0.0206068
0.0200008
0.0189715
0.0187338
0.0174813
0.01617
0.0156063
0.0166973
0.0183483
0.0209047
0.022347
0.0234547
0.0222797
0.0220935
0.0220763
0.0219255
0.0217585
0.0211031
0.0208042
0.0206495
0.020688
0.0202792
0.0194543
0.0189773
0.0183805
0.0178027
0.0174326
0.0178545
0.0189169
0.0204245
0.0211532
0.0214712
0.0213173
0.0212713
0.0212511
0.021223
0.0211369
0.0207947
0.0205572
0.0204717
0.0204543
0.0201777
0.0196933
0.0193239
0.0189941
0.0187226
0.0185281
0.0187199
0.0192957
0.0200561
0.0204075
0.0204653
0.0205931
0.0205787
0.0205809
0.020568
0.0205183
0.0203607
0.0202406
0.0201896
0.0201248
0.0199445
0.0197066
0.0195248
0.0193869
0.0192809
0.0192038
0.0192787
0.0195113
0.019806
0.0199273
0.0199077
0.0199445
0.0199397
0.0199381
0.0199311
0.0199145
0.0198697
0.0198386
0.01983
0.0197658
0.0196638
0.0196007
0.0195896
0.0196062
0.0196221
0.0196198
0.019616
0.0196226
0.0196347
0.0196169
0.0195839
)
;

boundaryField
{
    top
    {
        type            prghTotalPressure;
        rho             rho;
        psi             none;
        gamma           1;
        p0              uniform 0;
        value           nonuniform List<scalar> 
20
(
0.0196187
0.0196162
0.0196131
0.0196102
0.0196096
0.0196121
0.0196167
0.0196197
0.01962
0.01962
0.01962
0.01962
0.01962
0.01962
0.01962
0.01962
0.01962
0.01962
0.01962
0.01962
)
;
        rho             rho;
    }
    left
    {
        type            fixedFluxPressure;
        gradient        uniform 0;
        value           nonuniform List<scalar> 
40
(
15.2861
15.2844
15.285
15.2921
15.295
15.3048
15.3147
15.3252
15.3444
15.3593
15.3786
15.4019
15.4266
15.4548
15.4832
15.5137
15.5464
15.5791
15.6125
15.6481
15.6865
15.7301
15.7832
15.8582
15.9844
16.2553
16.4965
16.5727
16.3485
14.6975
2.28909
0.0292312
0.0579771
0.0344359
0.02688
0.0235445
0.0222797
0.0213173
0.0205931
0.0199445
)
;
    }
    right
    {
        type            fixedFluxPressure;
        gradient        uniform 0;
        value           nonuniform List<scalar> 
40
(
15.2615
15.2604
15.2605
15.2613
15.2637
15.2671
15.2714
15.2774
15.2851
15.2938
15.3079
15.3181
15.3257
15.3352
15.3442
15.351
15.3546
15.3548
15.3512
15.3431
15.3305
15.313
15.2899
15.259
15.2142
15.1483
15.0594
15.5009
16.7546
17.8847
2.93224
0.0247303
0.0445182
0.0353623
0.0267889
0.0234547
0.0214712
0.0204653
0.0199077
0.0195839
)
;
    }
    bottom
    {
        type            fixedFluxPressure;
        gradient        nonuniform List<scalar> 
20
(
-5.63303
-6.82362
-9.07075
-12.1662
-15.8677
-19.9001
-23.9298
-27.5632
-30.3483
-31.8641
-31.8395
-30.2832
-27.4809
-23.8672
-19.8848
-15.896
-12.2161
-9.11972
-6.866
-5.66467
)
;
        value           nonuniform List<scalar> 
20
(
15.286
15.2844
15.2841
15.2818
15.2764
15.2723
15.2693
15.2644
15.2595
15.2567
15.255
15.254
15.253
15.254
15.2569
15.2588
15.2589
15.2601
15.2564
15.2613
)
;
    }
    front
    {
        type            empty;
    }
    back
    {
        type            empty;
    }
    frontAndBack
    {
        type            empty;
    }
}


// ************************************************************************* //
