/*--------------------------------*- C++ -*----------------------------------*\
  =========                 |
  \\      /  F ield         | OpenFOAM: The Open Source CFD Toolbox
   \\    /   O peration     | Website:  https://openfoam.org
    \\  /    A nd           | Version:  10
     \\/     M anipulation  |
\*---------------------------------------------------------------------------*/
FoamFile
{
    format      ascii;
    class       surfaceScalarField;
    location    "0.1";
    object      phi;
}
// * * * * * * * * * * * * * * * * * * * * * * * * * * * * * * * * * * * * * //

dimensions      [0 3 -1 0 0 0 0];

internalField   nonuniform List<scalar> 
1540
(
5.12771e-14
-5.14895e-14
1.71585e-13
-1.2055e-13
3.93699e-13
-2.22365e-13
6.05582e-13
-2.12135e-13
6.96952e-13
-9.16202e-14
7.00831e-13
-4.12936e-15
6.20344e-13
8.02361e-14
4.10658e-13
2.09435e-13
9.64366e-14
3.1397e-13
-2.30106e-13
3.26291e-13
-5.20909e-13
2.90552e-13
-7.83014e-13
2.61855e-13
-9.86163e-13
2.029e-13
-1.09637e-12
1.09963e-13
-9.76165e-13
-1.20455e-13
-7.43875e-13
-2.32537e-13
-4.32752e-13
-3.11369e-13
-2.30741e-13
-2.02275e-13
-3.51953e-14
-1.95821e-13
-3.53336e-14
2.05855e-13
-2.57587e-13
6.05142e-13
-5.20106e-13
1.06529e-12
-6.82785e-13
1.44572e-12
-5.92848e-13
1.67494e-12
-3.21112e-13
1.66455e-12
5.98571e-15
1.40648e-12
3.38029e-13
8.84789e-13
7.30849e-13
1.84726e-13
1.01376e-12
-5.23384e-13
1.03413e-12
-1.20188e-12
9.68776e-13
-1.80251e-12
8.62202e-13
-2.24284e-12
6.42964e-13
-2.36953e-12
2.36376e-13
-2.19868e-12
-2.91574e-13
-1.80848e-12
-6.23005e-13
-1.29257e-12
-8.27552e-13
-6.74166e-13
-8.20957e-13
-1.95889e-13
-6.7438e-13
-2.31363e-13
3.12006e-13
-5.69844e-13
9.3915e-13
-1.14753e-12
1.51984e-12
-1.26376e-12
2.01991e-12
-1.0932e-12
2.28314e-12
-5.84624e-13
2.23489e-12
5.39575e-14
1.81796e-12
7.54681e-13
1.1616e-12
1.38693e-12
3.10331e-13
1.86474e-12
-6.74387e-13
2.01856e-12
-1.65657e-12
1.95068e-12
-2.47302e-12
1.67837e-12
-3.02785e-12
1.19751e-12
-3.19414e-12
4.0239e-13
-3.08902e-12
-3.96965e-13
-2.55638e-12
-1.15592e-12
-1.80038e-12
-1.58383e-12
-9.78861e-13
-1.64276e-12
-3.00356e-13
-1.35317e-12
-5.3186e-13
4.20368e-13
-9.90465e-13
1.11075e-12
-1.83818e-12
1.79268e-12
-1.94597e-12
2.37301e-12
-1.67382e-12
2.67924e-12
-8.91134e-13
2.58767e-12
1.45241e-13
2.17583e-12
1.16625e-12
1.35279e-12
2.20968e-12
3.25694e-13
2.89155e-12
-8.03874e-13
3.14785e-12
-1.90713e-12
3.05366e-12
-2.83172e-12
2.60268e-12
-3.42113e-12
1.78664e-12
-3.71975e-12
7.00728e-13
-3.56077e-12
-5.56215e-13
-2.99216e-12
-1.72482e-12
-2.1048e-12
-2.47147e-12
-1.11332e-12
-2.63452e-12
-3.53436e-13
-2.11333e-12
-8.85435e-13
2.39397e-13
-1.23011e-12
9.46496e-13
-2.54555e-12
1.83078e-12
-2.83054e-12
2.5536e-12
-2.39692e-12
2.92821e-12
-1.26602e-12
2.87619e-12
1.96982e-13
2.25988e-12
1.78227e-12
1.42841e-12
3.04087e-12
2.94373e-13
4.0253e-12
-9.18475e-13
4.36042e-12
-2.10133e-12
4.23623e-12
-3.14053e-12
3.6416e-12
-3.83066e-12
2.4765e-12
-4.25253e-12
1.12232e-12
-4.0195e-12
-7.89518e-13
-3.34008e-12
-2.40451e-12
-2.34702e-12
-3.4648e-12
-1.23391e-12
-3.74791e-12
-3.74547e-13
-2.97297e-12
-1.26012e-12
2.84271e-13
-1.51463e-12
1.02533e-12
-3.28688e-12
1.994e-12
-3.79949e-12
2.75854e-12
-3.16173e-12
3.14091e-12
-1.64867e-12
3.03153e-12
3.0609e-13
2.42446e-12
2.38906e-12
1.38579e-12
4.07927e-12
2.3526e-13
5.17556e-12
-9.71885e-13
5.56728e-12
-2.18395e-12
5.44802e-12
-3.29726e-12
4.75464e-12
-4.16653e-12
3.3455e-12
-4.55007e-12
1.50559e-12
-4.29307e-12
-1.04679e-12
-3.58276e-12
-3.11509e-12
-2.56245e-12
-4.48538e-12
-1.42233e-12
-4.88831e-12
-4.50913e-13
-3.94467e-12
-1.71117e-12
4.10827e-13
-1.9257e-12
1.20173e-12
-4.07805e-12
2.16762e-12
-4.76566e-12
2.93715e-12
-3.93154e-12
3.27723e-12
-1.98902e-12
3.10131e-12
4.81739e-13
2.51678e-12
2.97331e-12
1.39181e-12
5.20396e-12
3.4543e-13
6.22167e-12
-9.30209e-13
6.84265e-12
-2.14595e-12
6.66349e-12
-3.1843e-12
5.79271e-12
-4.03349e-12
4.19442e-12
-4.38051e-12
1.85235e-12
-4.3019e-12
-1.12567e-12
-3.66784e-12
-3.74942e-12
-2.69072e-12
-5.46277e-12
-1.53587e-12
-6.04343e-12
-4.90166e-13
-4.99064e-12
-2.20147e-12
4.28573e-13
-2.35452e-12
1.33758e-12
-4.98733e-12
2.26577e-12
-5.69412e-12
3.0292e-12
-4.69524e-12
3.35691e-12
-2.317e-12
3.13837e-12
7.00014e-13
2.48464e-12
3.62677e-12
1.67287e-12
6.01547e-12
4.23623e-13
7.47064e-12
-9.22536e-13
8.18854e-12
-2.19203e-12
7.93272e-12
-3.13293e-12
6.73334e-12
-4.06088e-12
5.12211e-12
-4.48346e-12
2.27466e-12
-4.37053e-12
-1.23886e-12
-3.69426e-12
-4.42595e-12
-2.76617e-12
-6.39112e-12
-1.62453e-12
-7.18534e-12
-5.20342e-13
-6.09509e-12
-2.72194e-12
4.94902e-13
-2.84966e-12
1.28473e-12
-5.77742e-12
2.16659e-12
-6.57623e-12
2.97025e-12
-5.49916e-12
3.21647e-12
-2.56348e-12
3.18725e-12
7.28971e-13
2.73497e-12
4.07879e-12
1.86494e-12
6.88523e-12
4.9897e-13
8.83635e-12
-1.03979e-12
9.72704e-12
-2.522e-12
9.41467e-12
-3.77897e-12
7.99005e-12
-4.33063e-12
5.67351e-12
-4.62739e-12
2.57117e-12
-4.47476e-12
-1.39175e-12
-3.71672e-12
-5.18424e-12
-2.68576e-12
-7.42233e-12
-1.56092e-12
-8.31044e-12
-4.73459e-13
-7.18281e-12
-3.19553e-12
3.36452e-13
-3.18634e-12
1.10804e-12
-6.54926e-12
1.8978e-12
-7.36624e-12
2.58491e-12
-6.18653e-12
3.14143e-12
-3.12026e-12
3.16326e-12
7.06878e-13
2.80493e-12
4.43687e-12
1.89056e-12
7.79935e-12
4.93861e-13
1.02328e-11
-1.12007e-12
1.13407e-11
-2.68042e-12
1.09748e-11
-3.86084e-12
9.17023e-12
-4.50889e-12
6.32131e-12
-4.59445e-12
2.65649e-12
-4.20986e-12
-1.77658e-12
-3.57511e-12
-5.81925e-12
-2.49921e-12
-8.49848e-12
-1.34147e-12
-9.46844e-12
-5.51368e-13
-7.97317e-12
-3.74702e-12
3.00997e-13
-3.48756e-12
9.874e-13
-7.23591e-12
1.73668e-12
-8.11578e-12
2.54784e-12
-6.99794e-12
3.10802e-12
-3.68069e-12
3.14514e-12
6.6951e-13
2.73314e-12
4.84861e-12
1.75277e-12
8.77948e-12
3.98576e-13
1.15867e-11
-1.11909e-12
1.28581e-11
-2.57214e-12
1.24276e-11
-3.79994e-12
1.03978e-11
-4.50591e-12
7.02703e-12
-4.45926e-12
2.6096e-12
-4.04821e-12
-2.18787e-12
-3.26186e-12
-6.60583e-12
-2.19433e-12
-9.56625e-12
-1.18034e-12
-1.04827e-11
-2.91664e-13
-8.86209e-12
-4.0388e-12
3.49741e-13
-3.83752e-12
1.00538e-12
-7.89178e-12
1.86237e-12
-8.97301e-12
2.50619e-12
-7.642e-12
2.98679e-12
-4.16153e-12
3.12569e-12
5.30373e-13
2.50488e-12
5.46918e-12
1.57304e-12
9.71108e-12
2.17566e-13
1.2942e-11
-1.2046e-12
1.42801e-11
-2.57049e-12
1.37932e-11
-3.7393e-12
1.15664e-11
-4.32329e-12
7.61079e-12
-4.35351e-12
2.63959e-12
-3.77888e-12
-2.76274e-12
-2.98396e-12
-7.40098e-12
-2.06808e-12
-1.04824e-11
-1.0966e-12
-1.14544e-11
-2.9179e-13
-9.66714e-12
-4.33071e-12
2.31799e-13
-4.06953e-12
7.78709e-13
-8.43892e-12
1.29642e-12
-9.49095e-12
1.78722e-12
-8.13302e-12
2.1958e-12
-4.57035e-12
2.2692e-12
4.56743e-13
1.70376e-12
6.0344e-12
8.58654e-13
1.0556e-11
-2.03975e-13
1.40044e-11
-1.28941e-12
1.53653e-11
-2.29068e-12
1.47942e-11
-3.04811e-12
1.23236e-11
-3.59276e-12
8.15522e-12
-3.6522e-12
2.6988e-12
-3.24628e-12
-3.16887e-12
-2.60387e-12
-8.0436e-12
-1.69562e-12
-1.13908e-11
-1.01801e-12
-1.21322e-11
-4.0147e-13
-1.02839e-11
-4.73229e-12
1.68567e-13
-4.23829e-12
4.85038e-13
-8.7556e-12
7.64881e-13
-9.77101e-12
9.63691e-13
-8.33205e-12
1.17881e-12
-4.78569e-12
1.05987e-12
5.75472e-13
7.90317e-13
6.30373e-12
-1.39166e-14
1.136e-11
-7.35375e-13
1.47256e-11
-1.36599e-12
1.59957e-11
-1.88201e-12
1.53101e-11
-2.19619e-12
1.26375e-11
-2.3783e-12
8.33712e-12
-2.31498e-12
2.63526e-12
-2.04426e-12
-3.43979e-12
-1.57739e-12
-8.51069e-12
-1.1412e-12
-1.18272e-11
-5.83742e-13
-1.26899e-11
-2.10666e-13
-1.06572e-11
-4.94306e-12
-2.42037e-14
-4.21428e-12
-8.42267e-14
-8.69579e-12
-1.50608e-13
-9.70484e-12
-1.78134e-13
-8.30474e-12
-3.45991e-13
-4.61804e-12
-3.85613e-13
6.14887e-13
-6.89853e-13
6.60777e-12
-9.80965e-13
1.16509e-11
-1.24293e-12
1.49874e-11
-1.48772e-12
1.62403e-11
-1.67047e-12
1.54926e-11
-1.80906e-12
1.27759e-11
-1.57183e-12
8.09969e-12
-1.24857e-12
2.31181e-12
-8.02195e-13
-3.88637e-12
-4.86752e-13
-8.82633e-12
-3.08933e-13
-1.20053e-11
-1.62169e-13
-1.28368e-11
-4.37949e-14
-1.07758e-11
-4.98695e-12
-2.19048e-13
-3.99541e-12
-6.62794e-13
-8.25223e-12
-1.06755e-12
-9.30028e-12
-1.51125e-12
-7.86123e-12
-1.88846e-12
-4.24102e-12
-1.87445e-12
6.00684e-13
-1.75666e-12
6.48978e-12
-1.73413e-12
1.16282e-11
-1.61513e-12
1.48682e-11
-1.58015e-12
1.62051e-11
-1.39741e-12
1.53097e-11
-1.00535e-12
1.23837e-11
-6.51252e-13
7.7454e-12
-2.26213e-13
1.88658e-12
5.93337e-14
-4.1721e-12
3.3773e-13
-9.10491e-12
3.68089e-13
-1.20358e-11
2.39699e-13
-1.27086e-11
6.33533e-14
-1.05996e-11
-4.92369e-12
-3.65601e-13
-3.62998e-12
-1.05793e-12
-7.56009e-12
-1.81885e-12
-8.53955e-12
-2.48144e-12
-7.19882e-12
-2.77826e-12
-3.94438e-12
-3.07621e-12
8.9845e-13
-3.03465e-12
6.44803e-12
-2.68038e-12
1.12737e-11
-2.15531e-12
1.43429e-11
-1.49553e-12
1.55451e-11
-8.78291e-13
1.46923e-11
-2.6668e-13
1.17719e-11
4.46021e-13
7.03253e-12
1.07314e-12
1.25929e-12
1.32112e-12
-4.42025e-12
1.23995e-12
-9.02391e-12
1.0097e-12
-1.18057e-11
6.09879e-13
-1.2309e-11
1.82912e-13
-1.01728e-11
-4.74086e-12
-4.87423e-13
-3.14271e-12
-1.40557e-12
-6.64211e-12
-2.44213e-12
-7.50317e-12
-3.28621e-12
-6.35491e-12
-3.84063e-12
-3.39014e-12
-3.97274e-12
1.03039e-12
-3.76234e-12
6.23746e-12
-3.25758e-12
1.07688e-11
-2.46751e-12
1.35527e-11
-1.36917e-12
1.44466e-11
-2.97836e-13
1.36207e-11
6.6569e-13
1.08082e-11
1.52034e-12
6.17771e-12
2.14578e-12
6.33682e-13
2.34764e-12
-4.62227e-12
2.09823e-12
-8.77466e-12
1.55728e-12
-1.12649e-11
8.98598e-13
-1.16505e-11
2.84579e-13
-9.55898e-12
-4.45636e-12
-5.77056e-13
-2.56581e-12
-1.71669e-12
-5.50263e-12
-2.93633e-12
-6.28369e-12
-4.00314e-12
-5.28826e-12
-4.78057e-12
-2.61287e-12
-5.13247e-12
1.38213e-12
-4.72978e-12
5.83462e-12
-3.89246e-12
9.9313e-12
-2.74698e-12
1.2407e-11
-1.49278e-12
1.31923e-11
-6.41408e-14
1.2192e-11
1.29065e-12
9.45323e-12
2.32741e-12
5.1408e-12
2.90435e-12
5.65929e-14
2.98228e-12
-4.70035e-12
2.61714e-12
-8.40968e-12
1.91387e-12
-1.05618e-11
1.07822e-12
-1.0815e-11
3.36948e-13
-8.81786e-12
-4.11949e-12
-6.31658e-13
-1.93429e-12
-1.87854e-12
-4.2559e-12
-3.25661e-12
-4.90577e-12
-4.53247e-12
-4.01256e-12
-5.45207e-12
-1.69342e-12
-5.77785e-12
1.70775e-12
-5.43209e-12
5.4887e-12
-4.39064e-12
8.8897e-12
-3.03639e-12
1.10526e-11
-1.4807e-12
1.16364e-11
1.4219e-13
1.05689e-11
1.66511e-12
7.93016e-12
2.8027e-12
4.00306e-12
3.35007e-12
-4.90917e-13
3.33267e-12
-4.6831e-12
2.84693e-12
-7.92408e-12
2.04924e-12
-9.76428e-12
1.13598e-12
-9.90187e-12
3.4885e-13
-8.03089e-12
-3.77071e-12
-6.3938e-13
-1.29504e-12
-1.93136e-12
-2.96407e-12
-3.39771e-12
-3.43957e-12
-4.76357e-12
-2.64685e-12
-5.72821e-12
-7.28921e-13
-6.09432e-12
2.07371e-12
-5.74796e-12
5.1422e-12
-4.7166e-12
7.85819e-12
-3.22934e-12
9.56524e-12
-1.52304e-12
9.92998e-12
2.03731e-13
8.842e-12
1.74642e-12
6.38733e-12
2.84443e-12
2.90491e-12
3.36153e-12
-1.00815e-12
3.29418e-12
-4.61589e-12
2.77351e-12
-7.40355e-12
1.96404e-12
-8.95495e-12
1.07229e-12
-9.01027e-12
3.23088e-13
-7.28183e-12
-3.4477e-12
-6.05813e-13
-6.89361e-13
-1.88229e-12
-1.68773e-12
-3.34285e-12
-1.97916e-12
-4.7078e-12
-1.28204e-12
-5.64244e-12
2.0557e-13
-6.04042e-12
2.47155e-12
-5.74119e-12
4.84283e-12
-4.78436e-12
6.90122e-12
-3.32137e-12
8.10211e-12
-1.62081e-12
8.22928e-12
5.23789e-14
7.16867e-12
1.49263e-12
4.94694e-12
2.49842e-12
1.89899e-12
2.98885e-12
-1.49872e-12
2.9071e-12
-4.53427e-12
2.4221e-12
-6.91868e-12
1.68028e-12
-8.21327e-12
9.03712e-13
-8.23384e-12
2.65833e-13
-6.6441e-12
-3.18194e-12
-5.24889e-13
-1.64601e-13
-1.74954e-12
-4.63222e-13
-3.13525e-12
-5.93594e-13
-4.44777e-12
3.03301e-14
-5.27211e-12
1.02977e-12
-5.69461e-12
2.8939e-12
-5.48846e-12
4.63653e-12
-4.67707e-12
6.08968e-12
-3.32596e-12
6.75086e-12
-1.74909e-12
6.65227e-12
-2.69913e-13
5.68935e-12
9.71897e-13
3.70499e-12
1.83891e-12
1.03184e-12
2.3317e-12
-1.99165e-12
2.27423e-12
-4.47694e-12
1.88288e-12
-6.52747e-12
1.25802e-12
-7.58856e-12
6.83836e-13
-7.6598e-12
1.97178e-13
-6.15759e-12
-2.98483e-12
-3.71665e-13
2.0693e-13
-1.55911e-12
7.24077e-13
-2.84198e-12
6.89126e-13
-4.12194e-12
1.31013e-12
-4.66075e-12
1.56843e-12
-5.14857e-12
3.38157e-12
-5.09052e-12
4.57833e-12
-4.50149e-12
5.50051e-12
-3.26231e-12
5.51153e-12
-1.82534e-12
5.21515e-12
-6.68881e-13
4.53274e-12
3.1158e-13
2.72438e-12
1.0117e-12
3.31567e-13
1.60939e-12
-2.58948e-12
1.55887e-12
-4.42657e-12
1.27786e-12
-6.24661e-12
7.60427e-13
-7.07127e-12
4.68058e-13
-7.36758e-12
1.75811e-13
-5.86549e-12
-2.8091e-12
8.13646e-14
1.25428e-13
-1.20787e-12
2.01316e-12
-2.75016e-12
2.23126e-12
-3.96802e-12
2.52783e-12
-3.86992e-12
1.47016e-12
-4.42775e-12
3.93924e-12
-4.69904e-12
4.84946e-12
-4.43344e-12
5.23475e-12
-3.1354e-12
4.21334e-12
-1.66829e-12
3.74788e-12
-9.01008e-13
3.7653e-12
-4.29529e-13
2.25275e-12
5.94039e-14
-1.57522e-13
9.84003e-13
-3.51423e-12
9.8762e-13
-4.43034e-12
6.90031e-13
-5.94917e-12
2.51035e-13
-6.63243e-12
3.05681e-13
-7.42238e-12
2.55048e-13
-5.81503e-12
-2.55414e-12
1.25704e-12
-1.13176e-12
-6.92233e-13
3.96227e-12
-3.42408e-12
4.96294e-12
-4.4906e-12
3.59417e-12
-2.50724e-12
-5.13363e-13
-3.18636e-12
4.6182e-12
-4.48202e-12
6.14495e-12
-5.23256e-12
5.98512e-12
-3.01793e-12
1.99853e-12
-6.95494e-13
1.42528e-12
-8.35866e-13
3.90551e-12
-1.66911e-12
3.08583e-12
-8.81002e-13
-9.45794e-13
1.16587e-12
-5.56126e-12
1.27375e-12
-4.53838e-12
1.63144e-13
-4.83873e-12
-3.69443e-13
-6.10001e-12
3.8776e-13
-8.17975e-12
7.51613e-13
-6.17905e-12
-1.80261e-12
4.14467e-12
-5.27657e-12
5.32856e-13
7.57392e-12
-5.96998e-12
1.14656e-11
-6.73724e-12
4.36127e-12
1.50521e-13
-7.40128e-12
1.11787e-14
4.75737e-12
-5.27003e-12
1.1426e-11
-7.74527e-12
8.46019e-12
-2.87026e-12
-2.87663e-12
1.86225e-12
-3.30739e-12
3.08453e-13
5.45915e-12
-3.70462e-12
7.09874e-12
-2.96749e-12
-1.68309e-12
2.14287e-12
-1.06718e-11
2.97224e-12
-5.36791e-12
-8.25922e-13
-1.04073e-12
-1.71255e-12
-5.21354e-12
9.16389e-13
-1.08089e-11
2.33345e-12
-7.59627e-12
5.30777e-13
1.12117e-11
-1.64884e-11
3.10467e-12
1.56808e-11
-1.10498e-11
2.562e-11
-1.13571e-11
4.66841e-12
4.77147e-12
-2.353e-11
5.17416e-12
4.35456e-12
-6.7006e-12
2.33006e-11
-1.28828e-11
1.46423e-11
-2.44921e-12
-1.33104e-11
8.78256e-12
-1.45393e-11
3.25412e-12
1.09875e-11
-6.34954e-12
1.67023e-11
-5.41062e-12
-2.62213e-12
6.84869e-12
-2.29312e-11
7.78107e-12
-6.30041e-12
-6.11534e-13
7.35175e-12
-4.54209e-12
-1.28311e-12
2.43001e-12
-1.77811e-11
5.62854e-12
-1.07949e-11
6.15927e-12
3.65207e-11
-5.30092e-11
1.43406e-11
3.78609e-11
-2.80456e-11
6.8006e-11
-2.75758e-11
4.19858e-12
2.29274e-11
-7.40332e-11
2.72733e-11
8.59913e-15
-1.08793e-11
6.14532e-11
-3.21513e-11
3.59142e-11
-3.33025e-12
-4.21315e-11
2.95833e-11
-4.74529e-11
1.59113e-11
2.46594e-11
-1.56644e-11
4.82778e-11
-1.60785e-11
-2.20807e-12
1.92349e-11
-5.82447e-11
2.21318e-11
-9.19733e-12
-1.58868e-12
3.10722e-11
-1.39211e-11
1.10492e-11
4.94339e-12
-3.66456e-11
1.52767e-11
-2.11283e-11
2.14359e-11
9.99774e-11
-1.52987e-10
4.31155e-11
9.47228e-11
-8.20129e-11
1.93134e-10
-7.3358e-11
-4.45634e-12
7.12209e-11
-2.18612e-10
8.80811e-11
-1.68517e-11
-1.78719e-11
1.67406e-10
-7.80178e-11
9.60601e-11
-2.11829e-12
-1.18031e-10
8.65023e-11
-1.36073e-10
5.2864e-11
5.82977e-11
-4.56356e-11
1.46777e-10
-4.57361e-11
-2.10765e-12
5.34571e-11
-1.57438e-10
6.30752e-11
-1.88155e-11
-4.75277e-15
9.41521e-11
-3.83869e-11
4.94314e-11
1.44239e-11
-8.94565e-11
5.18267e-11
-5.85311e-11
7.32627e-11
8.60977e-11
-2.39084e-10
5.898e-11
1.2184e-10
-9.36144e-11
3.45729e-10
-6.71816e-11
-3.08892e-11
8.06593e-11
-3.66453e-10
1.28156e-10
-6.43485e-11
9.15368e-12
2.86409e-10
-4.3314e-11
1.48528e-10
1.92456e-11
-1.80591e-10
1.05219e-10
-2.22047e-10
8.5983e-11
7.7534e-11
-2.88613e-11
2.61622e-10
-2.55633e-11
-5.40569e-12
5.66952e-11
-2.39696e-10
9.162e-11
-5.37403e-11
1.98249e-11
1.65947e-10
-2.38405e-11
9.30967e-11
1.75619e-11
-1.30859e-10
6.2037e-11
-1.03006e-10
1.353e-10
-1.10422e-10
-1.28663e-10
-9.52772e-11
1.06696e-10
4.59645e-11
2.04487e-10
7.90736e-11
-6.39982e-11
-5.63592e-11
-2.3102e-10
-1.6117e-11
-1.04591e-10
1.00019e-10
1.70273e-10
1.64822e-10
8.37243e-11
7.01905e-11
-8.59593e-11
-3.84702e-11
-1.13387e-10
-3.68599e-11
7.59237e-11
5.58277e-11
1.68934e-10
5.87743e-11
-8.35233e-12
-6.10904e-11
-1.19832e-10
-3.15516e-12
-1.11676e-10
4.5445e-11
1.17347e-10
9.90216e-11
3.95201e-11
3.87667e-11
-7.0604e-11
-4.01274e-11
-2.41122e-11
9.51723e-11
-1.96312e-10
6.76496e-11
-1.05218e-10
1.56018e-11
8.90051e-11
1.02638e-11
1.10797e-10
-8.579e-11
-7.8642e-11
-4.15814e-11
-7.02873e-11
-1.12945e-10
1.10826e-10
-1.084e-11
1.94107e-10
4.434e-13
6.49636e-11
4.31839e-11
-1.36009e-10
8.75862e-11
-9.11527e-11
3.10671e-11
7.21002e-13
7.70605e-11
1.86314e-11
-2.62627e-11
-2.67143e-11
-7.44861e-11
-4.93943e-11
-8.89955e-11
9.19473e-11
-2.39946e-11
1.73577e-10
-4.21092e-11
5.73351e-11
4.56375e-11
-2.46505e-12
3.5688e-11
9.27073e-11
1.68987e-11
5.07509e-11
9.99499e-12
2.25056e-11
4.22208e-11
-2.19619e-11
1.37838e-11
-5.73529e-11
1.28209e-11
-4.06184e-11
-2.46145e-11
-7.55101e-11
6.29871e-12
-4.17532e-11
9.86299e-12
-3.12083e-12
-1.49969e-12
5.45466e-11
1.12123e-11
7.48743e-11
-3.21137e-12
4.54908e-11
4.40773e-11
2.97719e-11
3.31312e-11
-1.53165e-11
-4.07856e-12
-3.72763e-11
-2.56691e-11
-6.74049e-11
-4.2142e-12
-4.54494e-11
-2.20715e-11
-2.42518e-11
-1.56349e-11
3.9201e-11
-3.46305e-11
5.46837e-11
5.80768e-11
2.32504e-11
2.75006e-11
3.13424e-11
1.44137e-11
2.83995e-11
-1.9019e-11
1.28535e-11
-4.18069e-11
1.09079e-11
-3.86728e-11
-1.10381e-11
-5.3564e-11
-1.88882e-11
-3.39031e-11
-2.10905e-11
-9.18454e-13
-5.30785e-12
3.87641e-11
1.65144e-11
5.30522e-11
2.28233e-11
3.9182e-11
3.23862e-11
2.0209e-11
2.48885e-11
-7.81878e-12
1.04413e-11
-2.2829e-11
-1.47603e-11
-4.22033e-11
-2.84449e-11
-3.17648e-11
-4.21373e-11
-1.05593e-11
-3.1494e-11
2.85577e-11
-2.03268e-11
4.35165e-11
3.775e-11
1.48352e-11
1.26654e-11
2.48445e-11
4.40452e-12
2.20114e-11
-1.61858e-11
1.16158e-11
-3.14113e-11
6.08312e-12
-3.314e-11
-9.14036e-12
-3.83405e-11
-1.82301e-11
-2.48132e-11
-1.8571e-11
-5.77535e-13
-5.42773e-12
2.56208e-11
1.12863e-11
3.63382e-11
2.08234e-11
2.96449e-11
2.4883e-11
1.61495e-11
1.80452e-11
-9.81013e-13
7.39993e-12
-1.21837e-11
-1.13841e-11
-2.34192e-11
-2.53123e-11
-1.78365e-11
-3.39102e-11
-1.96134e-12
-2.71233e-11
2.17708e-11
-1.47497e-11
3.11431e-11
2.30003e-11
8.98371e-12
3.68174e-12
1.59281e-11
-2.53986e-12
1.47296e-11
-1.49872e-11
8.42563e-12
-2.51073e-11
3.14109e-12
-2.78555e-11
-6.82176e-12
-2.83776e-11
-1.34856e-11
-1.81494e-11
-1.30489e-11
-1.01418e-12
-3.75388e-12
1.63258e-11
7.78594e-12
2.47984e-11
1.47703e-11
2.26606e-11
1.66237e-11
1.4296e-11
1.22581e-11
3.38462e-12
4.71546e-12
-4.64094e-12
-7.84467e-12
-1.0859e-11
-1.83846e-11
-7.29658e-12
-2.35604e-11
3.2145e-12
-1.84001e-11
1.66105e-11
-8.88912e-12
2.16322e-11
1.41112e-11
4.65946e-12
-9.77685e-13
9.04549e-12
-6.92586e-12
8.91962e-12
-1.48613e-11
5.35507e-12
-2.15427e-11
1.2027e-12
-2.37031e-11
-4.86816e-12
-2.23067e-11
-8.84257e-12
-1.41749e-11
-8.09053e-12
-1.7662e-12
-2.3746e-12
1.06099e-11
4.65817e-12
1.77657e-11
9.34466e-12
1.79741e-11
1.04915e-11
1.31492e-11
7.71617e-12
6.15995e-12
2.59839e-12
4.76867e-13
-5.2632e-12
-2.9974e-12
-1.18962e-11
-6.63518e-13
-1.45837e-11
5.90199e-12
-1.1274e-11
1.33009e-11
-5.05689e-12
1.54151e-11
9.05432e-12
2.16243e-12
-3.14009e-12
4.44925e-12
-9.21267e-12
4.64734e-12
-1.50594e-11
2.8337e-12
-1.97291e-11
2.61647e-13
-2.1131e-11
-3.02227e-12
-1.90228e-11
-5.01494e-12
-1.21822e-11
-4.34332e-12
-2.4378e-12
-1.20372e-12
7.47034e-12
2.61689e-12
1.39451e-11
5.32645e-12
1.52646e-11
5.98717e-12
1.24885e-11
4.36134e-12
7.78579e-12
1.14647e-12
3.69175e-12
-3.34678e-12
1.49586e-12
-7.03528e-12
3.02501e-12
-8.33229e-12
7.19902e-12
-6.41023e-12
1.13788e-11
-2.76724e-12
1.17721e-11
6.28709e-12
6.24946e-13
1.3314e-12
1.42638e-12
8.63481e-13
-1.07116e-14
-1.06082e-12
-1.69965e-12
-1.50088e-12
-2.53677e-13
1.58002e-12
2.98513e-12
3.28468e-12
2.28766e-12
3.12271e-13
-2.19256e-12
-4.19771e-12
-4.84612e-12
-3.80894e-12
-1.74843e-12
)
;

boundaryField
{
    top
    {
        type            calculated;
        value           nonuniform List<scalar> 
20
(
-3.76504e-12
-9.91912e-12
-1.51544e-11
-1.91661e-11
-2.02568e-11
-1.79727e-11
-1.15434e-11
-2.63657e-12
6.22314e-12
1.21114e-11
1.38595e-11
1.2189e-11
8.78282e-12
5.66714e-12
4.0007e-12
5.03017e-12
7.84743e-12
1.03417e-11
9.71162e-12
4.53867e-12
)
;
    }
    left
    {
        type            calculated;
        value           uniform 0;
    }
    right
    {
        type            calculated;
        value           uniform 0;
    }
    bottom
    {
        type            calculated;
        value           uniform 0;
    }
    front
    {
        type            empty;
        value           nonuniform List<scalar> 0();
    }
    back
    {
        type            empty;
        value           nonuniform List<scalar> 0();
    }
    frontAndBack
    {
        type            empty;
        value           nonuniform List<scalar> 0();
    }
}


// ************************************************************************* //
