/*--------------------------------*- C++ -*----------------------------------*\
  =========                 |
  \\      /  F ield         | OpenFOAM: The Open Source CFD Toolbox
   \\    /   O peration     | Website:  https://openfoam.org
    \\  /    A nd           | Version:  10
     \\/     M anipulation  |
\*---------------------------------------------------------------------------*/
FoamFile
{
    format      ascii;
    class       volScalarField;
    location    "0.1";
    object      T;
}
// * * * * * * * * * * * * * * * * * * * * * * * * * * * * * * * * * * * * * //

dimensions      [0 0 0 1 0 0 0];

internalField   nonuniform List<scalar> 
800
(
300.057
300.07
300.092
300.124
300.162
300.203
300.244
300.281
300.309
300.325
300.325
300.309
300.28
300.243
300.203
300.162
300.125
300.093
300.07
300.058
300.08
300.096
300.126
300.167
300.213
300.262
300.309
300.351
300.382
300.399
300.399
300.382
300.35
300.309
300.263
300.214
300.168
300.128
300.097
300.08
300.127
300.153
300.198
300.257
300.321
300.385
300.444
300.493
300.529
300.548
300.549
300.53
300.494
300.446
300.389
300.325
300.26
300.201
300.154
300.128
300.201
300.241
300.311
300.399
300.491
300.577
300.652
300.71
300.751
300.773
300.775
300.755
300.716
300.659
300.586
300.499
300.406
300.317
300.244
300.202
300.3
300.361
300.465
300.592
300.723
300.841
300.936
301.006
301.052
301.076
301.079
301.059
301.017
300.949
300.855
300.737
300.603
300.472
300.364
300.301
300.415
300.501
300.647
300.827
301.01
301.171
301.294
301.379
301.431
301.458
301.462
301.443
301.396
301.313
301.191
301.028
300.84
300.654
300.503
300.415
300.533
300.645
300.84
301.083
301.333
301.551
301.715
301.823
301.886
301.916
301.922
301.903
301.847
301.741
301.577
301.352
301.093
300.844
300.645
300.531
300.637
300.775
301.021
301.336
301.667
301.962
302.184
302.327
302.407
302.442
302.451
302.428
302.355
302.213
301.986
301.68
301.337
301.016
300.768
300.63
300.712
300.873
301.17
301.564
301.99
302.379
302.679
302.873
302.978
303.023
303.034
303.003
302.902
302.702
302.39
301.984
301.545
301.149
300.854
300.697
300.749
300.928
301.272
301.745
302.276
302.778
303.177
303.439
303.581
303.641
303.653
303.606
303.462
303.183
302.763
302.239
301.696
301.228
300.894
300.723
300.745
300.936
301.318
301.864
302.503
303.131
303.65
304.002
304.195
304.278
304.288
304.214
304.006
303.624
303.074
302.421
301.777
301.246
300.884
300.707
300.705
300.902
301.311
301.92
302.664
303.424
304.075
304.535
304.797
304.911
304.915
304.797
304.503
303.995
303.3
302.517
301.782
301.204
300.829
300.654
300.638
300.836
301.263
301.924
302.762
303.651
304.439
305.017
305.359
305.509
305.502
305.324
304.924
304.273
303.427
302.522
301.718
301.115
300.741
300.574
300.554
300.747
301.178
301.87
302.783
303.789
304.712
305.412
305.843
306.03
306.005
305.753
305.231
304.432
303.445
302.443
301.596
300.992
300.634
300.481
300.462
300.644
301.062
301.758
302.714
303.81
304.853
305.672
306.192
306.416
306.364
306.023
305.367
304.426
303.328
302.272
301.423
300.846
300.519
300.383
300.369
300.533
300.92
301.587
302.541
303.679
304.81
305.732
306.333
306.59
306.503
306.067
305.285
304.227
303.063
302.008
301.206
300.687
300.404
300.29
300.282
300.421
300.759
301.361
302.257
303.376
304.539
305.528
306.189
306.465
306.341
305.821
304.941
303.824
302.668
301.679
300.966
300.527
300.298
300.209
300.205
300.316
300.592
301.1
301.886
302.912
304.028
305.019
305.699
305.974
305.819
305.245
304.328
303.23
302.166
301.308
300.723
300.38
300.207
300.141
300.141
300.224
300.433
300.83
301.468
302.337
303.321
304.228
304.864
305.112
304.935
304.359
303.49
302.509
301.617
300.939
300.501
300.254
300.135
300.09
300.092
300.149
300.296
300.581
301.054
301.72
302.502
303.248
303.78
303.977
303.798
303.282
302.548
301.767
301.098
300.616
300.318
300.157
300.082
300.054
300.056
300.093
300.187
300.374
300.691
301.148
301.7
302.239
302.629
302.764
302.608
302.204
301.661
301.116
300.672
300.367
300.185
300.09
300.046
300.03
300.032
300.054
300.11
300.221
300.411
300.69
301.032
301.371
301.617
301.694
301.578
301.306
300.96
300.629
300.37
300.198
300.098
300.047
300.024
300.015
300.017
300.029
300.059
300.119
300.222
300.372
300.558
300.743
300.874
300.911
300.839
300.682
300.492
300.316
300.183
300.097
300.048
300.023
300.012
300.007
300.008
300.014
300.029
300.059
300.108
300.181
300.27
300.357
300.417
300.432
300.393
300.316
300.225
300.143
300.083
300.043
300.021
300.01
300.005
300.003
300.004
300.007
300.013
300.027
300.048
300.08
300.117
300.154
300.178
300.182
300.165
300.132
300.094
300.059
300.034
300.018
300.009
300.004
300.002
300.001
300.002
300.003
300.006
300.011
300.02
300.032
300.046
300.06
300.068
300.069
300.063
300.05
300.036
300.023
300.013
300.007
300.003
300.002
300.001
300.001
300.001
300.001
300.002
300.004
300.007
300.012
300.017
300.021
300.024
300.024
300.022
300.018
300.013
300.008
300.005
300.002
300.001
300.001
300
300
300
300
300.001
300.002
300.002
300.004
300.006
300.007
300.008
300.008
300.007
300.006
300.004
300.003
300.002
300.001
300
300
300
300
300
300
300
300
300.001
300.001
300.002
300.002
300.002
300.002
300.002
300.002
300.001
300.001
300.001
300
300
300
300
300
300
300
300
300
300
300
300
300
300
300
300.001
300
300
300
300
300
300
300
300
300
300
300
300
300
300
300
300
300
300
300
300
300
300
300
300
300
300
300
300
300
300
300
300
300
300
300
300
300
300
300
300
300
300
300
300
300
300
300
300
300
300
300
300
300
300
300
300
300
300
300
300
300
300
300
300
300
300
300
300
300
300
300
300
300
300
300
300
300
300
300
300
300
300
300
300
300
300
300
300
300
300
300
300
300
300
300
300
300
300
300
300
300
300
300
300
300
300
300
300
300
300
300
300
300
300
300
300
300
300
300
300
300
300
300
300
300
300
300
300
300
300
300
300
300
300
300
300
300
300
300
300
300
300
300
300
300
300
300
300
300
300
300
300
300
300
300
300
300
300
300
300
300
300
300
300
300
300
300
300
300
300
300
300
300
300
300
300
300
300
300
300
300
300
300
300
300
300
300
300
300
300
300
300
300
300
300
300
300
300
300
300
300
300
300
300
300
300
300
300
300
)
;

boundaryField
{
    top
    {
        type            inletOutlet;
        inletValue      uniform 300;
        value           nonuniform List<scalar> 
20
(
300
300
300
300
300
300
300
300
300
300
300
300
300
300
300
300
300
300
300
300
)
;
    }
    left
    {
        type            zeroGradient;
    }
    right
    {
        type            zeroGradient;
    }
    bottom
    {
        type            zeroGradient;
    }
    front
    {
        type            empty;
    }
    back
    {
        type            empty;
    }
    frontAndBack
    {
        type            empty;
    }
}


// ************************************************************************* //
