/*--------------------------------*- C++ -*----------------------------------*\
  =========                 |
  \\      /  F ield         | OpenFOAM: The Open Source CFD Toolbox
   \\    /   O peration     | Website:  https://openfoam.org
    \\  /    A nd           | Version:  10
     \\/     M anipulation  |
\*---------------------------------------------------------------------------*/
FoamFile
{
    format      ascii;
    class       volVectorField;
    location    "0.1";
    object      U;
}
// * * * * * * * * * * * * * * * * * * * * * * * * * * * * * * * * * * * * * //

dimensions      [0 1 -1 0 0 0 0];

internalField   nonuniform List<vector> 
800
(
(1.01043e-06 2.15324e-07 0)
(1.91082e-05 -7.5555e-07 0)
(5.53483e-05 -1.04054e-05 0)
(0.000101862 -1.08552e-05 0)
(0.00013416 -2.63462e-06 0)
(0.000144705 -4.00039e-07 0)
(0.000137107 4.56936e-07 0)
(0.000107321 6.92003e-06 0)
(5.28521e-05 1.32274e-05 0)
(-1.33243e-05 1.32286e-05 0)
(-7.62425e-05 1.02753e-05 0)
(-0.000132749 9.89448e-06 0)
(-0.000181699 8.93751e-06 0)
(-0.000214528 7.72016e-06 0)
(-0.000213042 -8.00552e-06 0)
(-0.000175508 -1.2537e-05 0)
(-0.000118316 -1.62641e-05 0)
(-6.47934e-05 -3.01837e-06 0)
(-2.07562e-05 -7.2356e-06 0)
(2.80176e-06 2.63031e-06 0)
(9.39709e-06 -2.43654e-05 0)
(7.67541e-05 -5.31808e-05 0)
(0.000167326 -8.23001e-05 0)
(0.000256758 -7.52658e-05 0)
(0.000321857 -3.76704e-05 0)
(0.000345522 -1.538e-06 0)
(0.000318726 3.48494e-05 0)
(0.000238449 8.33512e-05 0)
(0.00011183 0.00012028 0)
(-3.3494e-05 0.000122758 0)
(-0.000175607 0.00011206 0)
(-0.000307349 0.000100811 0)
(-0.000415372 7.76255e-05 0)
(-0.000474412 3.25138e-05 0)
(-0.00047007 -4.10565e-05 0)
(-0.000411092 -8.1464e-05 0)
(-0.000314395 -0.000105052 0)
(-0.00019451 -8.7536e-05 0)
(-7.82249e-05 -7.62444e-05 0)
(-6.44767e-06 -2.01807e-05 0)
(1.40315e-05 -7.98964e-05 0)
(0.000119716 -0.000159952 0)
(0.000247889 -0.000187859 0)
(0.000362327 -0.000163933 0)
(0.000443848 -8.8405e-05 0)
(0.000467582 4.22307e-06 0)
(0.000420873 0.00010424 0)
(0.00031085 0.00020501 0)
(0.000154601 0.000278891 0)
(-3.46025e-05 0.00029516 0)
(-0.000236996 0.000281666 0)
(-0.00042299 0.000245901 0)
(-0.000564493 0.000178307 0)
(-0.000639729 6.03325e-05 0)
(-0.000646198 -6.90549e-05 0)
(-0.000578718 -0.000173054 0)
(-0.000443668 -0.000233247 0)
(-0.000275538 -0.000236737 0)
(-0.000116293 -0.000195555 0)
(-1.1693e-05 -7.31235e-05 0)
(2.29483e-05 -0.000156212 0)
(0.000146665 -0.00029538 0)
(0.000292511 -0.000315446 0)
(0.00042708 -0.000271368 0)
(0.000521606 -0.000144902 0)
(0.000546803 1.95631e-05 0)
(0.000494466 0.000188572 0)
(0.000366244 0.000353739 0)
(0.000176679 0.000470377 0)
(-4.57258e-05 0.000510598 0)
(-0.000275988 0.000494483 0)
(-0.000485362 0.000422923 0)
(-0.000641505 0.000293135 0)
(-0.000734175 0.000107377 0)
(-0.000749906 -9.44744e-05 0)
(-0.000673135 -0.000283623 0)
(-0.000518788 -0.000399549 0)
(-0.000318835 -0.000421795 0)
(-0.000133707 -0.00034161 0)
(-1.38962e-05 -0.000139567 0)
(1.94884e-06 -0.000222716 0)
(0.000104431 -0.00043647 0)
(0.000277323 -0.000473277 0)
(0.000450359 -0.000402632 0)
(0.000568258 -0.000213892 0)
(0.000602914 3.36095e-05 0)
(0.000534348 0.000291027 0)
(0.000383215 0.000520242 0)
(0.000179492 0.000688435 0)
(-6.02434e-05 0.000747928 0)
(-0.000306409 0.000725916 0)
(-0.000534995 0.00062051 0)
(-0.000714537 0.000422063 0)
(-0.000832014 0.000179969 0)
(-0.000852212 -0.00013365 0)
(-0.000755681 -0.000410385 0)
(-0.000578726 -0.000590302 0)
(-0.0003549 -0.000634095 0)
(-0.000146036 -0.000504661 0)
(-1.28538e-05 -0.000212545 0)
(6.38551e-06 -0.00027392 0)
(0.00011635 -0.000580398 0)
(0.000301127 -0.000660666 0)
(0.000488942 -0.000554539 0)
(0.000612158 -0.000292209 0)
(0.00064219 4.8386e-05 0)
(0.000567373 0.000413365 0)
(0.000393863 0.000711423 0)
(0.000168593 0.000917334 0)
(-7.14941e-05 0.000992094 0)
(-0.000319924 0.000967526 0)
(-0.000558581 0.000838278 0)
(-0.000764154 0.000580496 0)
(-0.000896513 0.000260339 0)
(-0.000910932 -0.00018553 0)
(-0.000808399 -0.000553092 0)
(-0.000625622 -0.000795245 0)
(-0.000396913 -0.000861885 0)
(-0.000172771 -0.000688609 0)
(-1.79574e-05 -0.000295372 0)
(1.80242e-05 -0.000341617 0)
(0.000150384 -0.000734565 0)
(0.000337962 -0.00085541 0)
(0.000525219 -0.000709723 0)
(0.000644704 -0.000365242 0)
(0.000663254 7.74493e-05 0)
(0.000582471 0.000537443 0)
(0.000402508 0.000928608 0)
(0.000181259 0.00113888 0)
(-5.50891e-05 0.00123832 0)
(-0.000312493 0.00120982 0)
(-0.000542926 0.00105376 0)
(-0.000738292 0.000755173 0)
(-0.00086655 0.000334746 0)
(-0.000894906 -0.000219924 0)
(-0.000817528 -0.000688388 0)
(-0.000647906 -0.000995411 0)
(-0.000423483 -0.00109297 0)
(-0.000188851 -0.000891901 0)
(-1.9534e-05 -0.000389964 0)
(1.77134e-05 -0.00042768 0)
(0.000166188 -0.000906461 0)
(0.000361512 -0.00104709 0)
(0.000545129 -0.000864183 0)
(0.000661367 -0.00042914 0)
(0.000671487 0.000120543 0)
(0.00058291 0.000664586 0)
(0.000432041 0.00112315 0)
(0.000220367 0.00136671 0)
(-4.72278e-05 0.0014963 0)
(-0.00031823 0.00145392 0)
(-0.000545467 0.00125141 0)
(-0.000736908 0.000933517 0)
(-0.000876305 0.000416693 0)
(-0.000910951 -0.000234516 0)
(-0.00082842 -0.000816806 0)
(-0.000658439 -0.00118437 0)
(-0.000440199 -0.00132249 0)
(-0.000200956 -0.00110967 0)
(-2.13926e-05 -0.000491675 0)
(2.57014e-05 -0.000521865 0)
(0.000170951 -0.00107928 0)
(0.000347752 -0.00122994 0)
(0.000525783 -0.00101916 0)
(0.000639346 -0.000484229 0)
(0.00066304 0.000149102 0)
(0.000613225 0.000773795 0)
(0.000481556 0.00129186 0)
(0.000252541 0.00162622 0)
(-5.08138e-05 0.0017862 0)
(-0.00036679 0.00172913 0)
(-0.000648571 0.0014699 0)
(-0.000833363 0.00108286 0)
(-0.000920802 0.000491226 0)
(-0.0009334 -0.000257926 0)
(-0.000838949 -0.000957832 0)
(-0.000652386 -0.00138089 0)
(-0.000423222 -0.00155155 0)
(-0.000188631 -0.00132995 0)
(-1.74558e-05 -0.000594634 0)
(1.12313e-05 -0.000604768 0)
(0.000134612 -0.00123618 0)
(0.000299177 -0.00139564 0)
(0.000457415 -0.00116774 0)
(0.000590528 -0.000564864 0)
(0.000652403 0.000147789 0)
(0.000621434 0.000851695 0)
(0.000493846 0.00146808 0)
(0.000255362 0.00190571 0)
(-5.92266e-05 0.00210661 0)
(-0.000389226 0.00203833 0)
(-0.000675957 0.00171402 0)
(-0.000864318 0.00120257 0)
(-0.000934366 0.000526562 0)
(-0.000902443 -0.000310961 0)
(-0.000796557 -0.00109785 0)
(-0.000615138 -0.0015926 0)
(-0.000380447 -0.00178045 0)
(-0.000177844 -0.00151971 0)
(-2.98357e-05 -0.000696712 0)
(9.82838e-06 -0.000669264 0)
(0.000118435 -0.00137954 0)
(0.000271086 -0.00155049 0)
(0.000435486 -0.00131999 0)
(0.00058114 -0.00067907 0)
(0.000650129 0.000137598 0)
(0.000613855 0.000927417 0)
(0.000471503 0.00165592 0)
(0.000230306 0.00218446 0)
(-6.91791e-05 0.00242398 0)
(-0.000377751 0.00234429 0)
(-0.000658457 0.00196026 0)
(-0.000858961 0.00133527 0)
(-0.000924142 0.0005291 0)
(-0.000871316 -0.00039293 0)
(-0.000744524 -0.00124225 0)
(-0.0005526 -0.00180766 0)
(-0.000332287 -0.00199861 0)
(-0.000128504 -0.00168859 0)
(-3.0662e-06 -0.000779076 0)
(1.66687e-05 -0.000734008 0)
(0.000127703 -0.00151724 0)
(0.000285829 -0.00171499 0)
(0.00044257 -0.00147001 0)
(0.000565157 -0.000788543 0)
(0.000636365 0.000118156 0)
(0.000589166 0.00103158 0)
(0.000427719 0.00185029 0)
(0.000189533 0.00246002 0)
(-9.78366e-05 0.00272432 0)
(-0.000385731 0.00263379 0)
(-0.000648488 0.00220516 0)
(-0.000832758 0.00146782 0)
(-0.000894533 0.000525286 0)
(-0.000832292 -0.000497373 0)
(-0.00068901 -0.00140396 0)
(-0.000508392 -0.00201173 0)
(-0.000310619 -0.00220047 0)
(-0.000123763 -0.00185756 0)
(-5.96123e-06 -0.000840222 0)
(7.64865e-06 -0.000794168 0)
(9.39204e-05 -0.0016428 0)
(0.000208068 -0.00185733 0)
(0.000313139 -0.00158879 0)
(0.000409196 -0.000882807 0)
(0.000466965 9.52313e-05 0)
(0.000420945 0.0011508 0)
(0.000271344 0.00203611 0)
(7.01512e-05 0.00270761 0)
(-0.00015091 0.00298244 0)
(-0.000364803 0.00287785 0)
(-0.00054755 0.00240484 0)
(-0.000683674 0.00158753 0)
(-0.000745276 0.000535283 0)
(-0.000706252 -0.000596848 0)
(-0.000593165 -0.00155334 0)
(-0.000431187 -0.00219874 0)
(-0.000267295 -0.00237036 0)
(-0.000134065 -0.00200323 0)
(-2.37233e-05 -0.00090988 0)
(8.86382e-06 -0.000836924 0)
(6.3127e-05 -0.00173217 0)
(0.000125437 -0.00194139 0)
(0.000175741 -0.00166116 0)
(0.000219862 -0.000946188 0)
(0.00023686 9.94769e-05 0)
(0.000205645 0.00124038 0)
(8.20138e-05 0.00220457 0)
(-8.2616e-05 0.0028912 0)
(-0.000214132 0.00315611 0)
(-0.000330911 0.00302998 0)
(-0.00041782 0.0025161 0)
(-0.000470455 0.00166331 0)
(-0.000482481 0.000542158 0)
(-0.000444405 -0.00066133 0)
(-0.000365452 -0.00166342 0)
(-0.000271749 -0.00233412 0)
(-0.000169033 -0.00249741 0)
(-7.50424e-05 -0.00210651 0)
(-1.09053e-05 -0.000971766 0)
(-8.02774e-07 -0.000852242 0)
(-1.00304e-05 -0.00176016 0)
(-2.41712e-05 -0.00196521 0)
(-2.99914e-05 -0.00167921 0)
(-5.24646e-05 -0.000948634 0)
(-7.17131e-05 0.000118942 0)
(-9.79003e-05 0.00130224 0)
(-0.000164276 0.0023175 0)
(-0.000224532 0.0029913 0)
(-0.000275405 0.0032438 0)
(-0.00032209 0.00309862 0)
(-0.000356712 0.00255751 0)
(-0.000347127 0.00165795 0)
(-0.000287344 0.000502985 0)
(-0.000205296 -0.00073185 0)
(-0.000124961 -0.00174029 0)
(-7.45539e-05 -0.00239532 0)
(-4.40903e-05 -0.00256636 0)
(-1.82065e-05 -0.0021564 0)
(-1.67859e-06 -0.000998902 0)
(-1.0509e-05 -0.000827577 0)
(-8.36475e-05 -0.00170932 0)
(-0.000173768 -0.00191663 0)
(-0.000262594 -0.00162861 0)
(-0.000348271 -0.000894848 0)
(-0.000383849 0.000116879 0)
(-0.00036653 0.00131597 0)
(-0.000351679 0.00234343 0)
(-0.000336878 0.00300521 0)
(-0.000321297 0.00326524 0)
(-0.000301054 0.00310043 0)
(-0.00024611 0.00253252 0)
(-0.000169474 0.00159749 0)
(-8.3767e-05 0.000425288 0)
(-1.43869e-05 -0.000808041 0)
(4.35764e-05 -0.00180212 0)
(7.98936e-05 -0.00241681 0)
(6.537e-05 -0.00256825 0)
(2.81125e-05 -0.00214906 0)
(2.57426e-07 -0.000996614 0)
(-1.73735e-05 -0.0007678 0)
(-0.000135864 -0.00159347 0)
(-0.000289303 -0.00179658 0)
(-0.000437838 -0.00151677 0)
(-0.000538431 -0.000824985 0)
(-0.000598813 0.000145586 0)
(-0.000621505 0.00129972 0)
(-0.000580563 0.0023029 0)
(-0.00048986 0.00293977 0)
(-0.000367888 0.00319562 0)
(-0.000239347 0.00302121 0)
(-0.00011739 0.00243341 0)
(1.82779e-05 0.00148825 0)
(0.000162513 0.000318971 0)
(0.000254498 -0.000863487 0)
(0.000269854 -0.00182229 0)
(0.000235329 -0.00239725 0)
(0.000165327 -0.00251494 0)
(7.36695e-05 -0.0020877 0)
(5.39773e-06 -0.000970701 0)
(-2.31191e-05 -0.00068162 0)
(-0.000180495 -0.00142946 0)
(-0.000386386 -0.0016154 0)
(-0.000584464 -0.00136626 0)
(-0.000728766 -0.000739673 0)
(-0.00080074 0.000192357 0)
(-0.000793432 0.0012744 0)
(-0.000716674 0.00221686 0)
(-0.000582832 0.00280472 0)
(-0.000388675 0.00301798 0)
(-0.000165551 0.00284963 0)
(4.20114e-05 0.00227323 0)
(0.000228386 0.00133015 0)
(0.000384587 0.00019052 0)
(0.000470656 -0.000908714 0)
(0.000462224 -0.00178865 0)
(0.000376557 -0.00231711 0)
(0.000247871 -0.00240616 0)
(0.000109987 -0.00198107 0)
(1.04241e-05 -0.000922831 0)
(-2.68277e-05 -0.000573921 0)
(-0.000217406 -0.0012211 0)
(-0.000465547 -0.00138755 0)
(-0.000705906 -0.00117327 0)
(-0.000900125 -0.000608265 0)
(-0.00101849 0.000237587 0)
(-0.00101226 0.00121163 0)
(-0.000881237 0.00207982 0)
(-0.000676537 0.00260894 0)
(-0.000430811 0.00277787 0)
(-0.000155136 0.00259523 0)
(0.000131224 0.00203782 0)
(0.000379106 0.00113778 0)
(0.000547049 6.83716e-05 0)
(0.000613539 -0.000936573 0)
(0.000579812 -0.00172464 0)
(0.000464248 -0.00218947 0)
(0.000299894 -0.00225255 0)
(0.000130678 -0.00184194 0)
(1.2132e-05 -0.000859268 0)
(-2.924e-05 -0.000451467 0)
(-0.000237405 -0.000979692 0)
(-0.000512863 -0.00112399 0)
(-0.000791107 -0.000935502 0)
(-0.00102151 -0.000434705 0)
(-0.0011549 0.000306805 0)
(-0.00115307 0.00113428 0)
(-0.00100569 0.00188747 0)
(-0.000756292 0.00235474 0)
(-0.000457786 0.00249134 0)
(-0.000132704 0.00228415 0)
(0.000193386 0.00174373 0)
(0.000470003 0.000915918 0)
(0.000643343 -4.5246e-05 0)
(0.000694469 -0.000941744 0)
(0.000637865 -0.00163668 0)
(0.000500243 -0.0020355 0)
(0.000317813 -0.00207334 0)
(0.000135965 -0.00168541 0)
(1.20288e-05 -0.000789019 0)
(-2.88985e-05 -0.000323049 0)
(-0.000242244 -0.000722674 0)
(-0.000531178 -0.000835537 0)
(-0.000828516 -0.000667548 0)
(-0.00107372 -0.000243116 0)
(-0.0012148 0.000377414 0)
(-0.00121814 0.00106165 0)
(-0.0010731 0.00167509 0)
(-0.000810122 0.00206357 0)
(-0.000480853 0.0021593 0)
(-0.0001276 0.00194176 0)
(0.00021082 0.00143027 0)
(0.000484514 0.000687974 0)
(0.000649707 -0.000152649 0)
(0.000691524 -0.000931916 0)
(0.000625401 -0.00153324 0)
(0.00048288 -0.00187088 0)
(0.000301659 -0.00188856 0)
(0.000126502 -0.00152841 0)
(1.04646e-05 -0.000720359 0)
(-2.5978e-05 -0.000197652 0)
(-0.000233572 -0.000463646 0)
(-0.000520368 -0.000539951 0)
(-0.000817399 -0.000391585 0)
(-0.00105894 -4.89443e-05 0)
(-0.00119941 0.000453642 0)
(-0.00121119 0.000996022 0)
(-0.00107972 0.00147157 0)
(-0.000827319 0.00176271 0)
(-0.000498999 0.00181157 0)
(-0.000150485 0.00159514 0)
(0.000171711 0.00112682 0)
(0.000423833 0.000474253 0)
(0.000576072 -0.000253647 0)
(0.000613533 -0.000915856 0)
(0.000549395 -0.0014299 0)
(0.000417458 -0.00171257 0)
(0.000255375 -0.00171833 0)
(0.000104501 -0.00138702 0)
(7.62732e-06 -0.000660396 0)
(-1.78474e-05 -8.91868e-05 0)
(-0.000212256 -0.000216354 0)
(-0.000486313 -0.000258023 0)
(-0.000770593 -0.000126271 0)
(-0.000993986 0.000129404 0)
(-0.00112441 0.000535403 0)
(-0.00114904 0.000944579 0)
(-0.00104191 0.00129183 0)
(-0.000817025 0.00147719 0)
(-0.000510769 0.00147867 0)
(-0.000194805 0.00127522 0)
(8.70125e-05 0.000855963 0)
(0.000302954 0.000286778 0)
(0.000441264 -0.000350836 0)
(0.000481382 -0.000901408 0)
(0.000429188 -0.00134124 0)
(0.000319209 -0.00157442 0)
(0.000190046 -0.00158218 0)
(7.68334e-05 -0.00127361 0)
(4.42849e-06 -0.000613775 0)
(8.09134e-07 8.98398e-06 0)
(-0.000174439 4.03597e-05 0)
(-0.000437421 3.56747e-05 0)
(-0.000709467 0.000142187 0)
(-0.000898078 0.000279171 0)
(-0.00100344 0.000627975 0)
(-0.00105243 0.000915833 0)
(-0.000981574 0.00114766 0)
(-0.000793761 0.00121327 0)
(-0.000508202 0.00117123 0)
(-0.000241061 0.00100585 0)
(-1.84002e-05 0.000634341 0)
(0.000149316 0.000145604 0)
(0.000282614 -0.000456511 0)
(0.000334744 -0.000891666 0)
(0.000293583 -0.00127729 0)
(0.000205384 -0.00146211 0)
(0.000116157 -0.00149716 0)
(5.36492e-05 -0.00119733 0)
(2.39574e-06 -0.000578731 0)
(5.70936e-05 1.19218e-05 0)
(-9.88745e-05 0.000252915 0)
(-0.000387271 0.000280791 0)
(-0.000688819 0.000368479 0)
(-0.000800304 0.000289194 0)
(-0.000838933 0.000718636 0)
(-0.000943548 0.000916174 0)
(-0.000931867 0.00104707 0)
(-0.000779033 0.000939914 0)
(-0.000464322 0.000852024 0)
(-0.000243862 0.000786358 0)
(-0.000103446 0.00044257 0)
(-2.99376e-05 -2.98871e-05 0)
(0.000113546 -0.000639795 0)
(0.000212993 -0.000894971 0)
(0.000169308 -0.00122584 0)
(8.80886e-05 -0.00136606 0)
(4.16721e-05 -0.00146923 0)
(5.70881e-05 -0.00116021 0)
(8.37226e-06 -0.000539477 0)
(0.000186398 4.48105e-05 0)
(6.06164e-05 0.000677581 0)
(-0.000334243 0.000802433 0)
(-0.000774233 0.000674814 0)
(-0.000683175 0.000274394 0)
(-0.000524303 0.00091124 0)
(-0.000813123 0.00120295 0)
(-0.000941677 0.0012088 0)
(-0.000819735 0.000776265 0)
(-0.000333605 0.000652327 0)
(-0.000152965 0.000868553 0)
(-0.000214049 0.000595411 0)
(-0.000249238 3.38511e-06 0)
(4.33489e-05 -0.000801742 0)
(0.000242811 -0.000843028 0)
(0.000114496 -0.00101435 0)
(-3.04453e-05 -0.00122599 0)
(-2.94771e-05 -0.00148002 0)
(0.000125526 -0.00113799 0)
(6.74975e-05 -0.000395894 0)
(0.000522799 -0.000448915 0)
(0.000486688 0.000862828 0)
(-0.00043178 0.00118768 0)
(-0.0012117 0.000572332 0)
(-0.000581286 -0.00053493 0)
(9.04016e-05 0.00070505 0)
(-0.000545825 0.00129256 0)
(-0.00117433 0.00113459 0)
(-0.00100168 -5.96633e-05 0)
(4.45899e-05 -0.000169435 0)
(0.00028951 0.00062132 0)
(-0.000302919 0.000496976 0)
(-0.000675526 -0.000431707 0)
(-6.4507e-05 -0.00166171 0)
(0.000560867 -0.0012097 0)
(0.000168285 -0.00106428 0)
(-0.000290305 -0.00132351 0)
(-0.000119014 -0.00202036 0)
(0.000362581 -0.00150889 0)
(0.000233849 -0.000379906 0)
(0.00130072 -0.00161348 0)
(0.00157038 0.00260078 0)
(-0.000712254 0.00396608 0)
(-0.00232891 0.00165298 0)
(-0.00043382 -0.00206391 0)
(0.00144571 0.00151473 0)
(-1.66575e-05 0.00372784 0)
(-0.00197465 0.00281624 0)
(-0.00154439 -0.000879357 0)
(0.00086274 -0.00121276 0)
(0.00138949 0.00175092 0)
(-0.000456681 0.0023542 0)
(-0.00134304 4.753e-05 0)
(0.000108545 -0.00286218 0)
(0.00162327 -0.00086712 0)
(0.000621615 0.000399792 0)
(-0.000769864 -0.00040261 0)
(-0.000294121 -0.00252491 0)
(0.00095095 -0.00168197 0)
(0.000648565 0.000491387 0)
(0.00452185 -0.0063526 0)
(0.00576464 0.00456349 0)
(-0.00163078 0.0082693 0)
(-0.00640139 -1.71366e-06 0)
(-0.000361866 -0.00896741 0)
(0.00602231 -0.000510711 0)
(0.00176345 0.00728186 0)
(-0.00515985 0.00415 0)
(-0.00400753 -0.00534863 0)
(0.00329236 -0.00585001 0)
(0.00533753 0.00287837 0)
(-0.000895733 0.00538407 0)
(-0.00391873 -0.0011631 0)
(0.000215753 -0.00799288 0)
(0.00495543 -0.00226136 0)
(0.00181211 0.00267113 0)
(-0.00262161 0.000206283 0)
(-0.00119078 -0.00551445 0)
(0.00271015 -0.00349176 0)
(0.00191318 0.00229854 0)
(0.0115332 -0.01098 0)
(0.0169761 0.00874434 0)
(-0.00548784 0.0148724 0)
(-0.0171862 0.00178693 0)
(-0.000180584 -0.0155113 0)
(0.0178847 0.00101711 0)
(0.00794764 0.0135409 0)
(-0.0131846 0.0079261 0)
(-0.00886524 -0.00916022 0)
(0.00948006 -0.00965973 0)
(0.0165111 0.00594173 0)
(-0.00243493 0.0109281 0)
(-0.0108739 0.000205043 0)
(0.000345213 -0.0122943 0)
(0.013925 -0.000452855 0)
(0.00575179 0.00856729 0)
(-0.00709005 0.00371518 0)
(-0.00333819 -0.00737329 0)
(0.00829742 -0.00402908 0)
(0.00676973 0.00561033 0)
(0.00444831 -0.0317108 0)
(0.021841 0.0169844 0)
(-0.00695284 0.0325455 0)
(-0.0186323 -0.0051436 0)
(0.000745659 -0.0478397 0)
(0.0225003 -0.00677116 0)
(0.0151046 0.0298171 0)
(-0.0124913 0.0158561 0)
(0.000559237 -0.0281929 0)
(0.00957599 -0.0281462 0)
(0.0233469 0.0118362 0)
(0.000272882 0.0257917 0)
(-0.00732118 -0.00450675 0)
(0.00145271 -0.0366734 0)
(0.0166066 -0.004666 0)
(0.0104119 0.0195666 0)
(-0.00519188 0.00791522 0)
(-0.000892065 -0.0222026 0)
(0.00803841 -0.0133974 0)
(0.00956012 0.0155639 0)
(-0.0132535 -0.0468652 0)
(-0.0212667 0.0310933 0)
(-0.00542173 0.0757659 0)
(0.0190097 -0.00456228 0)
(0.00162233 -0.0775995 0)
(-0.0151948 -0.0160589 0)
(0.0103654 0.0622646 0)
(0.0259571 0.0379241 0)
(0.0287863 -0.0327359 0)
(-0.00453715 -0.0464452 0)
(-0.0076528 0.0138888 0)
(0.00245657 0.0564062 0)
(0.0161599 0.00679261 0)
(-0.00274375 -0.0415435 0)
(-0.0119965 -0.0177212 0)
(0.00564947 0.0324875 0)
(0.0172264 0.0225272 0)
(0.0152283 -0.0207913 0)
(-0.00629951 -0.0156612 0)
(0.000309046 0.0227845 0)
(-0.0203049 -0.00564529 0)
(-0.0353444 0.0128595 0)
(-0.000655539 0.0206741 0)
(0.0246697 -0.019507 0)
(0.00337659 -0.0255687 0)
(-0.0206969 -0.0262048 0)
(0.00114213 0.0171292 0)
(0.0342591 0.00883702 0)
(0.0283808 -0.00472641 0)
(-0.0121162 0.000216629 0)
(-0.0256339 0.0130242 0)
(-0.00843746 0.0255371 0)
(0.0066575 -0.00476748 0)
(-0.000137321 -0.0229312 0)
(-0.0124471 -0.0227501 0)
(0.00326463 0.0130495 0)
(0.0292903 0.000724201 0)
(0.0237404 -0.00330997 0)
(0.00109903 0.0025748 0)
(-0.00012233 0.0218717 0)
(0.000523595 0.0162418 0)
(0.00153237 0.00283594 0)
(0.00596217 -0.00716106 0)
(0.00646082 -0.0146141 0)
(0.00272895 -0.00397023 0)
(-0.00241972 -0.0194755 0)
(-0.00250216 -0.0119031 0)
(0.00295913 -0.00323074 0)
(0.00200872 0.0160583 0)
(-0.000454831 0.0200929 0)
(-0.000349775 0.00694365 0)
(0.00491406 0.00827053 0)
(0.00863174 -0.00354412 0)
(0.00308763 -0.00765571 0)
(-0.00401019 -0.0176709 0)
(-0.00331546 -0.0132095 0)
(-0.00103011 -0.00950738 0)
(-0.00291763 0.0131511 0)
(-0.00628466 0.0108385 0)
(-0.00316696 0.0134189 0)
(0.00187296 0.00788753 0)
(0.0068797 0.00372986 0)
(0.00642573 -0.00456114 0)
(0.00327663 -0.0103134 0)
(0.00236174 -0.00834395 0)
(0.000634227 -0.0132118 0)
(-0.00340261 -0.00811337 0)
(-0.00488328 -0.00047188 0)
(-0.0032856 0.00917906 0)
(0.00138734 0.0129448 0)
(0.00442618 0.00883289 0)
(0.00582078 0.00535675 0)
(0.0055681 -0.00282771 0)
(0.00377432 -0.00674401 0)
(-6.29971e-05 -0.0109418 0)
(-0.00454698 -0.00788105 0)
(-0.00770412 -0.00387823 0)
(-0.00787164 0.00658109 0)
(-0.00548785 0.00958636 0)
(-0.00150597 0.0103771 0)
(0.000909264 0.00399337 0)
(0.00496376 0.00173743 0)
(0.00516923 -0.00344489 0)
(0.00302053 -0.00711859 0)
(0.00180986 -0.00713651 0)
(7.08353e-05 -0.00898475 0)
(-0.0030842 -0.00581234 0)
(-0.0043697 -6.55465e-05 0)
(-0.00283611 0.00643012 0)
(0.00077897 0.0088163 0)
(0.00364067 0.00672222 0)
(0.00491553 0.00354489 0)
(0.00427664 -0.000640146 0)
(0.00275151 -0.00332176 0)
(-9.04269e-05 -0.00635344 0)
(-0.00388587 -0.0049295 0)
(-0.00645031 -0.00113177 0)
(-0.00656398 0.00519117 0)
(-0.00445751 0.00747341 0)
(-0.00109959 0.00586314 0)
(0.00056152 0.00139317 0)
(0.00299505 9.16176e-05 0)
(0.00341624 -0.00297451 0)
(0.00230625 -0.00550955 0)
(0.00122544 -0.00610546 0)
(-0.000250668 -0.00648832 0)
(-0.0022893 -0.00409399 0)
(-0.00306525 -0.000106501 0)
(-0.00194423 0.00395515 0)
(0.000480354 0.00583768 0)
(0.00252127 0.00516362 0)
(0.00340882 0.00307592 0)
(0.00299673 0.000303298 0)
(0.00186614 -0.00162816 0)
(-0.000172772 -0.00322767 0)
(-0.0027871 -0.00227743 0)
(-0.00454482 0.000288403 0)
(-0.00453127 0.00371996 0)
(-0.00291511 0.00514032 0)
(-0.000631176 0.00358613 0)
(0.000271526 0.000133113 0)
(0.00160797 -0.0010559 0)
(0.00201384 -0.0029385 0)
(0.00150009 -0.00457002 0)
(0.000712808 -0.00508188 0)
(-0.000353182 -0.00492842 0)
(-0.00154947 -0.00311449 0)
(-0.00193292 -0.000285151 0)
(-0.00119777 0.00254662 0)
(0.00025697 0.00408978 0)
(0.00155262 0.00397343 0)
(0.00216551 0.00273423 0)
(0.0019384 0.00100361 0)
(0.00114735 -0.000352565 0)
(-0.000209766 -0.00123215 0)
(-0.00183356 -0.000642298 0)
(-0.00287193 0.000982284 0)
(-0.00279417 0.00292068 0)
(-0.00173812 0.00359105 0)
(-0.000342268 0.00223042 0)
(0.000118831 -0.000478796 0)
(0.000760588 -0.00167533 0)
(0.00102417 -0.00298222 0)
(0.000810778 -0.00406197 0)
(0.000344418 -0.00440334 0)
(-0.000287329 -0.00403134 0)
(-0.00090492 -0.00257012 0)
(-0.00105864 -0.000429312 0)
(-0.000642312 0.00170851 0)
(0.00015005 0.00303704 0)
(0.000877039 0.00323049 0)
(0.00124264 0.00253798 0)
(0.00112218 0.0014349 0)
(0.000620057 0.000502244 0)
(-0.000201788 -1.82721e-05 0)
(-0.00111538 0.000353086 0)
(-0.00167075 0.00135701 0)
(-0.00159533 0.00241511 0)
(-0.000975076 0.00261504 0)
(-0.000175291 0.00146253 0)
(3.36332e-05 -0.000753501 0)
(0.000222119 -0.00198538 0)
(0.000311203 -0.00303227 0)
(0.000251983 -0.0038342 0)
(9.70043e-05 -0.00405251 0)
(-0.000113178 -0.00359925 0)
(-0.000306679 -0.00231679 0)
(-0.000343232 -0.000539141 0)
(-0.000259335 0.00126006 0)
(0.000129986 0.00246646 0)
(0.000504557 0.00280498 0)
(0.000697071 0.00243692 0)
(0.000618218 0.00171266 0)
(0.000303086 0.00105431 0)
(-0.00018359 0.000704941 0)
(-0.00069124 0.000930635 0)
(-0.00098944 0.00154282 0)
(-0.000940936 0.00210082 0)
(-0.000589095 0.00201483 0)
(-0.000124789 0.000987612 0)
)
;

boundaryField
{
    top
    {
        type            pressureInletOutletVelocity;
        value           nonuniform List<vector> 
20
(
(0 -0.000753501 0)
(0 -0.00198538 0)
(0 -0.00303227 0)
(0 -0.0038342 0)
(0 -0.00405251 0)
(0 -0.00359925 0)
(0 -0.00231679 0)
(0 -0.000539141 0)
(-0.000259335 0.00126006 0)
(0.000129986 0.00246646 0)
(0.000504557 0.00280498 0)
(0.000697071 0.00243692 0)
(0.000618218 0.00171266 0)
(0.000303086 0.00105431 0)
(-0.00018359 0.000704941 0)
(-0.00069124 0.000930635 0)
(-0.00098944 0.00154282 0)
(-0.000940936 0.00210082 0)
(-0.000589095 0.00201483 0)
(-0.000124789 0.000987612 0)
)
;
    }
    left
    {
        type            noSlip;
    }
    right
    {
        type            noSlip;
    }
    bottom
    {
        type            noSlip;
    }
    front
    {
        type            empty;
    }
    back
    {
        type            empty;
    }
    frontAndBack
    {
        type            empty;
    }
}


// ************************************************************************* //
